<?xml version="1.0" encoding="UTF-8"?>

<!-- generated on 2024-10-11 12:09:19 by Eclipse SUMO GUI Version v1_20_0+1676-0884fd201b0
<sumoConfiguration xmlns:xsi="http://www.w3.org/2001/XMLSchema-instance" xsi:noNamespaceSchemaLocation="http://sumo.dlr.de/xsd/sumoConfiguration.xsd">

    <input>
        <net-file value="highway.net.xml"/>
        <route-files value="highway.rou.xml"/>
        <additional-files value="toll_stops.add.xml,toll_shape.add.xml"/>
    </input>

    <output>
        <fcd-output value="highway_fcd.xml"/>
    </output>

    <time>
        <begin value="0"/>
        <end value="1000"/>
        <step-length value="0.1"/>
    </time>

    <processing>
        <time-to-teleport value="-1"/>
    </processing>

    <report>
        <message-log value="results/sumo-0.log"/>
        <no-step-log value="true"/>
    </report>

    <traci_server>
        <remote-port value="44987"/>
    </traci_server>

    <random_number>
        <seed value="23423"/>
    </random_number>

    <gui_only>
        <quit-on-end value="true"/>
    </gui_only>

</sumoConfiguration>
-->

<fcd-export xmlns:xsi="http://www.w3.org/2001/XMLSchema-instance" xsi:noNamespaceSchemaLocation="http://sumo.dlr.de/xsd/fcd_file.xsd">
    <timestep time="0.00">
        <vehicle id="drowsy_driver" x="2786.73" y="2336.32" angle="23.56" type="drowsy_car" speed="20.00" pos="4.60" lane="B1.2102_1" slope="0.00"/>
    </timestep>
    <timestep time="0.10">
        <vehicle id="drowsy_driver" x="2787.53" y="2338.16" angle="23.56" type="drowsy_car" speed="20.12" pos="6.61" lane="B1.2102_1" slope="0.00"/>
    </timestep>
    <timestep time="0.20">
        <vehicle id="drowsy_driver" x="2788.35" y="2340.02" angle="23.56" type="drowsy_car" speed="20.31" pos="8.64" lane="B1.2102_1" slope="0.00"/>
    </timestep>
    <timestep time="0.30">
        <vehicle id="drowsy_driver" x="2789.16" y="2341.89" angle="23.56" type="drowsy_car" speed="20.39" pos="10.68" lane="B1.2102_1" slope="0.00"/>
        <vehicle id="entering_flow.0" x="2789.66" y="2335.04" angle="23.56" type="car" speed="0.00" pos="4.60" lane="B1.2102_0" slope="0.00"/>
    </timestep>
    <timestep time="0.40">
        <vehicle id="drowsy_driver" x="2789.98" y="2343.77" angle="23.56" type="drowsy_car" speed="20.46" pos="12.73" lane="B1.2102_1" slope="0.00"/>
        <vehicle id="entering_flow.0" x="2789.67" y="2335.06" angle="23.56" type="car" speed="0.25" pos="4.62" lane="B1.2102_0" slope="0.00"/>
    </timestep>
    <timestep time="0.50">
        <vehicle id="drowsy_driver" x="2790.81" y="2345.67" angle="23.56" type="drowsy_car" speed="20.72" pos="14.80" lane="B1.2102_1" slope="0.00"/>
        <vehicle id="entering_flow.0" x="2789.69" y="2335.11" angle="23.56" type="car" speed="0.50" pos="4.67" lane="B1.2102_0" slope="0.00"/>
    </timestep>
    <timestep time="0.60">
        <vehicle id="drowsy_driver" x="2791.64" y="2347.59" angle="23.56" type="drowsy_car" speed="20.96" pos="16.90" lane="B1.2102_1" slope="0.00"/>
        <vehicle id="entering_flow.0" x="2789.72" y="2335.17" angle="23.56" type="car" speed="0.73" pos="4.75" lane="B1.2102_0" slope="0.00"/>
    </timestep>
    <timestep time="0.70">
        <vehicle id="drowsy_driver" x="2792.48" y="2349.52" angle="23.56" type="drowsy_car" speed="21.04" pos="19.00" lane="B1.2102_1" slope="0.00"/>
        <vehicle id="entering_flow.0" x="2789.76" y="2335.26" angle="23.56" type="car" speed="0.96" pos="4.84" lane="B1.2102_0" slope="0.00"/>
    </timestep>
    <timestep time="0.80">
        <vehicle id="drowsy_driver" x="2793.33" y="2351.45" angle="23.56" type="drowsy_car" speed="21.15" pos="21.11" lane="B1.2102_1" slope="0.00"/>
        <vehicle id="entering_flow.0" x="2789.81" y="2335.37" angle="23.56" type="car" speed="1.22" pos="4.96" lane="B1.2102_0" slope="0.00"/>
    </timestep>
    <timestep time="0.90">
        <vehicle id="drowsy_driver" x="2794.18" y="2353.41" angle="23.56" type="drowsy_car" speed="21.34" pos="23.25" lane="B1.2102_1" slope="0.00"/>
        <vehicle id="entering_flow.0" x="2789.86" y="2335.50" angle="23.56" type="car" speed="1.43" pos="5.11" lane="B1.2102_0" slope="0.00"/>
    </timestep>
    <timestep time="1.00">
        <vehicle id="drowsy_driver" x="2795.04" y="2355.38" angle="23.56" type="drowsy_car" speed="21.47" pos="25.39" lane="B1.2102_1" slope="0.00"/>
        <vehicle id="entering_flow.0" x="2789.93" y="2335.65" angle="23.56" type="car" speed="1.63" pos="5.27" lane="B1.2102_0" slope="0.00"/>
    </timestep>
    <timestep time="1.10">
        <vehicle id="drowsy_driver" x="2795.90" y="2357.35" angle="23.56" type="drowsy_car" speed="21.54" pos="27.55" lane="B1.2102_1" slope="0.00"/>
        <vehicle id="entering_flow.0" x="2790.00" y="2335.82" angle="23.56" type="car" speed="1.84" pos="5.46" lane="B1.2102_0" slope="0.00"/>
    </timestep>
    <timestep time="1.20">
        <vehicle id="drowsy_driver" x="2796.77" y="2359.35" angle="23.56" type="drowsy_car" speed="21.75" pos="29.72" lane="B1.2102_1" slope="0.00"/>
        <vehicle id="entering_flow.0" x="2790.08" y="2336.01" angle="23.56" type="car" speed="2.09" pos="5.66" lane="B1.2102_0" slope="0.00"/>
    </timestep>
    <timestep time="1.30">
        <vehicle id="drowsy_driver" x="2797.65" y="2361.36" angle="23.56" type="drowsy_car" speed="21.99" pos="31.92" lane="B1.2102_1" slope="0.00"/>
        <vehicle id="entering_flow.0" x="2790.18" y="2336.22" angle="23.56" type="car" speed="2.29" pos="5.89" lane="B1.2102_0" slope="0.00"/>
    </timestep>
    <timestep time="1.40">
        <vehicle id="drowsy_driver" x="2798.54" y="2363.40" angle="23.56" type="drowsy_car" speed="22.23" pos="34.15" lane="B1.2102_1" slope="0.00"/>
        <vehicle id="entering_flow.0" x="2790.28" y="2336.45" angle="23.56" type="car" speed="2.50" pos="6.14" lane="B1.2102_0" slope="0.00"/>
    </timestep>
    <timestep time="1.50">
        <vehicle id="drowsy_driver" x="2799.44" y="2365.46" angle="23.56" type="drowsy_car" speed="22.45" pos="36.39" lane="B1.2102_1" slope="0.00"/>
        <vehicle id="entering_flow.0" x="2790.38" y="2336.70" angle="23.56" type="car" speed="2.70" pos="6.41" lane="B1.2102_0" slope="0.00"/>
    </timestep>
    <timestep time="1.60">
        <vehicle id="drowsy_driver" x="2800.34" y="2367.54" angle="23.56" type="drowsy_car" speed="22.68" pos="38.66" lane="B1.2102_1" slope="0.00"/>
        <vehicle id="entering_flow.0" x="2790.50" y="2336.96" angle="23.56" type="car" speed="2.84" pos="6.70" lane="B1.2102_0" slope="0.00"/>
    </timestep>
    <timestep time="1.70">
        <vehicle id="drowsy_driver" x="2801.26" y="2369.63" angle="23.56" type="drowsy_car" speed="22.80" pos="40.94" lane="B1.2102_1" slope="0.00"/>
        <vehicle id="entering_flow.0" x="2790.62" y="2337.23" angle="23.56" type="car" speed="2.97" pos="6.99" lane="B1.2102_0" slope="0.00"/>
    </timestep>
    <timestep time="1.80">
        <vehicle id="drowsy_driver" x="2802.17" y="2371.73" angle="23.56" type="drowsy_car" speed="22.94" pos="43.23" lane="B1.2102_1" slope="0.00"/>
        <vehicle id="entering_flow.0" x="2790.74" y="2337.53" angle="23.56" type="car" speed="3.21" pos="7.32" lane="B1.2102_0" slope="0.00"/>
    </timestep>
    <timestep time="1.90">
        <vehicle id="drowsy_driver" x="2803.10" y="2373.85" angle="23.56" type="drowsy_car" speed="23.12" pos="45.55" lane="B1.2102_1" slope="0.00"/>
        <vehicle id="entering_flow.0" x="2790.88" y="2337.84" angle="23.56" type="car" speed="3.43" pos="7.66" lane="B1.2102_0" slope="0.00"/>
    </timestep>
    <timestep time="2.00">
        <vehicle id="drowsy_driver" x="2804.02" y="2375.97" angle="23.56" type="drowsy_car" speed="23.17" pos="47.86" lane="B1.2102_1" slope="0.00"/>
        <vehicle id="entering_flow.0" x="2791.03" y="2338.17" angle="23.56" type="car" speed="3.64" pos="8.02" lane="B1.2102_0" slope="0.00"/>
    </timestep>
    <timestep time="2.10">
        <vehicle id="drowsy_driver" x="2804.95" y="2378.11" angle="23.56" type="drowsy_car" speed="23.28" pos="50.19" lane="B1.2102_1" slope="0.00"/>
        <vehicle id="entering_flow.0" x="2791.18" y="2338.52" angle="23.56" type="car" speed="3.78" pos="8.40" lane="B1.2102_0" slope="0.00"/>
    </timestep>
    <timestep time="2.20">
        <vehicle id="drowsy_driver" x="2805.89" y="2380.26" angle="23.56" type="drowsy_car" speed="23.48" pos="52.54" lane="B1.2102_1" slope="0.00"/>
        <vehicle id="entering_flow.0" x="2791.34" y="2338.89" angle="23.56" type="car" speed="4.00" pos="8.80" lane="B1.2102_0" slope="0.00"/>
    </timestep>
    <timestep time="2.30">
        <vehicle id="drowsy_driver" x="2806.83" y="2382.42" angle="23.56" type="drowsy_car" speed="23.56" pos="54.89" lane="B1.2102_1" slope="0.00"/>
        <vehicle id="entering_flow.0" x="2791.51" y="2339.27" angle="23.56" type="car" speed="4.18" pos="9.22" lane="B1.2102_0" slope="0.00"/>
    </timestep>
    <timestep time="2.40">
        <vehicle id="drowsy_driver" x="2807.78" y="2384.59" angle="23.56" type="drowsy_car" speed="23.68" pos="57.26" lane="B1.2102_1" slope="0.00"/>
        <vehicle id="entering_flow.0" x="2791.68" y="2339.67" angle="23.56" type="car" speed="4.37" pos="9.65" lane="B1.2102_0" slope="0.00"/>
    </timestep>
    <timestep time="2.50">
        <vehicle id="drowsy_driver" x="2808.73" y="2386.77" angle="23.56" type="drowsy_car" speed="23.84" pos="59.65" lane="B1.2102_1" slope="0.00"/>
        <vehicle id="entering_flow.0" x="2791.86" y="2340.09" angle="23.56" type="car" speed="4.55" pos="10.11" lane="B1.2102_0" slope="0.00"/>
    </timestep>
    <timestep time="2.60">
        <vehicle id="drowsy_driver" x="2809.69" y="2388.97" angle="23.56" type="drowsy_car" speed="23.93" pos="62.04" lane="B1.2102_1" slope="0.00"/>
        <vehicle id="entering_flow.0" x="2792.05" y="2340.52" angle="23.56" type="car" speed="4.73" pos="10.58" lane="B1.2102_0" slope="0.00"/>
    </timestep>
    <timestep time="2.70">
        <vehicle id="drowsy_driver" x="2810.65" y="2391.17" angle="23.56" type="drowsy_car" speed="24.07" pos="64.45" lane="B1.2102_1" slope="0.00"/>
        <vehicle id="entering_flow.0" x="2792.25" y="2340.97" angle="23.56" type="car" speed="4.93" pos="11.07" lane="B1.2102_0" slope="0.00"/>
    </timestep>
    <timestep time="2.80">
        <vehicle id="drowsy_driver" x="2811.62" y="2393.39" angle="23.56" type="drowsy_car" speed="24.22" pos="66.87" lane="B1.2102_1" slope="0.00"/>
        <vehicle id="entering_flow.0" x="2792.45" y="2341.44" angle="23.56" type="car" speed="5.13" pos="11.59" lane="B1.2102_0" slope="0.00"/>
    </timestep>
    <timestep time="2.90">
        <vehicle id="drowsy_driver" x="2812.60" y="2395.64" angle="23.56" type="drowsy_car" speed="24.47" pos="69.32" lane="B1.2102_1" slope="0.00"/>
        <vehicle id="entering_flow.0" x="2792.67" y="2341.94" angle="23.56" type="car" speed="5.38" pos="12.12" lane="B1.2102_0" slope="0.00"/>
        <vehicle id="normal_flow.0" x="2789.66" y="2335.04" angle="23.56" type="car" speed="0.00" pos="4.60" lane="B1.2102_0" slope="0.00"/>
    </timestep>
    <timestep time="3.00">
        <vehicle id="drowsy_driver" x="2813.58" y="2397.89" angle="23.56" type="drowsy_car" speed="24.63" pos="71.78" lane="B1.2102_1" slope="0.00"/>
        <vehicle id="entering_flow.0" x="2792.89" y="2342.44" angle="23.56" type="car" speed="5.55" pos="12.68" lane="B1.2102_0" slope="0.00"/>
        <vehicle id="normal_flow.0" x="2789.67" y="2335.06" angle="23.56" type="car" speed="0.25" pos="4.63" lane="B1.2102_0" slope="0.00"/>
    </timestep>
    <timestep time="3.10">
        <vehicle id="drowsy_driver" x="2814.57" y="2400.16" angle="23.56" type="drowsy_car" speed="24.77" pos="74.26" lane="B1.2102_1" slope="0.00"/>
        <vehicle id="entering_flow.0" x="2793.12" y="2342.97" angle="23.56" type="car" speed="5.77" pos="13.26" lane="B1.2102_0" slope="0.00"/>
        <vehicle id="normal_flow.0" x="2789.69" y="2335.11" angle="23.56" type="car" speed="0.51" pos="4.68" lane="B1.2102_0" slope="0.00"/>
    </timestep>
    <timestep time="3.20">
        <vehicle id="drowsy_driver" x="2815.57" y="2402.44" angle="23.56" type="drowsy_car" speed="24.86" pos="76.74" lane="B1.2102_1" slope="0.00"/>
        <vehicle id="entering_flow.0" x="2793.36" y="2343.53" angle="23.56" type="car" speed="6.01" pos="13.86" lane="B1.2102_0" slope="0.00"/>
        <vehicle id="normal_flow.0" x="2789.72" y="2335.18" angle="23.56" type="car" speed="0.74" pos="4.75" lane="B1.2102_0" slope="0.00"/>
    </timestep>
    <timestep time="3.30">
        <vehicle id="drowsy_driver" x="2816.56" y="2404.73" angle="23.56" type="drowsy_car" speed="24.96" pos="79.24" lane="B1.2102_1" slope="0.00"/>
        <vehicle id="entering_flow.0" x="2793.61" y="2344.10" angle="23.56" type="car" speed="6.27" pos="14.49" lane="B1.2102_0" slope="0.00"/>
        <vehicle id="normal_flow.0" x="2789.76" y="2335.27" angle="23.56" type="car" speed="1.00" pos="4.85" lane="B1.2102_0" slope="0.00"/>
    </timestep>
    <timestep time="3.40">
        <vehicle id="drowsy_driver" x="2817.57" y="2407.03" angle="23.56" type="drowsy_car" speed="25.04" pos="81.74" lane="B1.2102_1" slope="0.00"/>
        <vehicle id="entering_flow.0" x="2793.87" y="2344.69" angle="23.56" type="car" speed="6.48" pos="15.13" lane="B1.2102_0" slope="0.00"/>
        <vehicle id="normal_flow.0" x="2789.81" y="2335.38" angle="23.56" type="car" speed="1.24" pos="4.98" lane="B1.2102_0" slope="0.00"/>
    </timestep>
    <timestep time="3.50">
        <vehicle id="drowsy_driver" x="2818.57" y="2409.34" angle="23.56" type="drowsy_car" speed="25.22" pos="84.27" lane="B1.2102_1" slope="0.00"/>
        <vehicle id="entering_flow.0" x="2794.14" y="2345.30" angle="23.56" type="car" speed="6.61" pos="15.79" lane="B1.2102_0" slope="0.00"/>
        <vehicle id="normal_flow.0" x="2789.87" y="2335.52" angle="23.56" type="car" speed="1.50" pos="5.12" lane="B1.2102_0" slope="0.00"/>
    </timestep>
    <timestep time="3.60">
        <vehicle id="drowsy_driver" x="2819.59" y="2411.67" angle="23.56" type="drowsy_car" speed="25.40" pos="86.81" lane="B1.2102_1" slope="0.00"/>
        <vehicle id="entering_flow.0" x="2794.41" y="2345.93" angle="23.56" type="car" speed="6.83" pos="16.48" lane="B1.2102_0" slope="0.00"/>
        <vehicle id="normal_flow.0" x="2789.94" y="2335.67" angle="23.56" type="car" speed="1.70" pos="5.29" lane="B1.2102_0" slope="0.00"/>
    </timestep>
    <timestep time="3.70">
        <vehicle id="drowsy_driver" x="2820.61" y="2414.00" angle="23.56" type="drowsy_car" speed="25.49" pos="89.35" lane="B1.2102_1" slope="0.00"/>
        <vehicle id="entering_flow.0" x="2794.69" y="2346.58" angle="23.56" type="car" speed="7.08" pos="17.19" lane="B1.2102_0" slope="0.00"/>
        <vehicle id="normal_flow.0" x="2790.01" y="2335.85" angle="23.56" type="car" speed="1.90" pos="5.48" lane="B1.2102_0" slope="0.00"/>
    </timestep>
    <timestep time="3.80">
        <vehicle id="drowsy_driver" x="2821.64" y="2416.36" angle="23.56" type="drowsy_car" speed="25.73" pos="91.93" lane="B1.2102_1" slope="0.00"/>
        <vehicle id="entering_flow.0" x="2794.98" y="2347.24" angle="23.56" type="car" speed="7.25" pos="17.91" lane="B1.2102_0" slope="0.00"/>
        <vehicle id="normal_flow.0" x="2790.10" y="2336.05" angle="23.56" type="car" speed="2.15" pos="5.70" lane="B1.2102_0" slope="0.00"/>
    </timestep>
    <timestep time="3.90">
        <vehicle id="drowsy_driver" x="2822.67" y="2418.74" angle="23.56" type="drowsy_car" speed="25.94" pos="94.52" lane="B1.2102_1" slope="0.00"/>
        <vehicle id="entering_flow.0" x="2795.28" y="2347.92" angle="23.56" type="car" speed="7.45" pos="18.65" lane="B1.2102_0" slope="0.00"/>
        <vehicle id="normal_flow.0" x="2790.20" y="2336.27" angle="23.56" type="car" speed="2.41" pos="5.94" lane="B1.2102_0" slope="0.00"/>
    </timestep>
    <timestep time="4.00">
        <vehicle id="drowsy_driver" x="2823.72" y="2421.14" angle="23.56" type="drowsy_car" speed="26.18" pos="97.14" lane="B1.2102_1" slope="0.00"/>
        <vehicle id="entering_flow.0" x="2795.56" y="2348.56" angle="23.56" type="car" speed="7.00" pos="19.35" lane="B1.2102_0" slope="0.00"/>
        <vehicle id="normal_flow.0" x="2790.27" y="2336.45" angle="23.56" type="car" speed="1.96" pos="6.14" lane="B1.2102_0" slope="0.00"/>
    </timestep>
    <timestep time="4.10">
        <vehicle id="drowsy_driver" x="2824.78" y="2423.56" angle="23.56" type="drowsy_car" speed="26.40" pos="99.78" lane="B1.2102_1" slope="0.00"/>
        <vehicle id="entering_flow.0" x="2795.82" y="2349.16" angle="23.56" type="car" speed="6.55" pos="20.01" lane="B1.2102_0" slope="0.00"/>
        <vehicle id="normal_flow.0" x="2790.34" y="2336.59" angle="23.56" type="car" speed="1.57" pos="6.29" lane="B1.2102_0" slope="0.00"/>
    </timestep>
    <timestep time="4.20">
        <vehicle id="drowsy_driver" x="2825.83" y="2425.99" angle="23.56" type="drowsy_car" speed="26.50" pos="102.43" lane="B1.2102_1" slope="0.00"/>
        <vehicle id="entering_flow.0" x="2796.06" y="2349.72" angle="23.56" type="car" speed="6.10" pos="20.62" lane="B1.2102_0" slope="0.00"/>
        <vehicle id="normal_flow.0" x="2790.39" y="2336.70" angle="23.56" type="car" speed="1.25" pos="6.42" lane="B1.2102_0" slope="0.00"/>
    </timestep>
    <timestep time="4.30">
        <vehicle id="drowsy_driver" x="2826.90" y="2428.43" angle="23.56" type="drowsy_car" speed="26.62" pos="105.09" lane="B1.2102_1" slope="0.00"/>
        <vehicle id="entering_flow.0" x="2796.29" y="2350.24" angle="23.56" type="car" speed="5.65" pos="21.18" lane="B1.2102_0" slope="0.00"/>
        <vehicle id="normal_flow.0" x="2790.43" y="2336.80" angle="23.56" type="car" speed="1.00" pos="6.52" lane="B1.2102_0" slope="0.00"/>
    </timestep>
    <timestep time="4.40">
        <vehicle id="drowsy_driver" x="2827.97" y="2430.88" angle="23.56" type="drowsy_car" speed="26.69" pos="107.76" lane="B1.2102_1" slope="0.00"/>
        <vehicle id="entering_flow.0" x="2796.50" y="2350.72" angle="23.56" type="car" speed="5.20" pos="21.70" lane="B1.2102_0" slope="0.00"/>
        <vehicle id="normal_flow.0" x="2790.46" y="2336.87" angle="23.56" type="car" speed="0.80" pos="6.60" lane="B1.2102_0" slope="0.00"/>
    </timestep>
    <timestep time="4.50">
        <vehicle id="drowsy_driver" x="2829.04" y="2433.34" angle="23.56" type="drowsy_car" speed="26.94" pos="110.45" lane="B1.2102_1" slope="0.00"/>
        <vehicle id="entering_flow.0" x="2796.69" y="2351.15" angle="23.56" type="car" speed="4.75" pos="22.18" lane="B1.2102_0" slope="0.00"/>
        <vehicle id="normal_flow.0" x="2790.48" y="2336.93" angle="23.56" type="car" speed="0.64" pos="6.66" lane="B1.2102_0" slope="0.00"/>
    </timestep>
    <timestep time="4.60">
        <vehicle id="drowsy_driver" x="2830.12" y="2435.82" angle="23.56" type="drowsy_car" speed="27.06" pos="113.16" lane="B1.2102_1" slope="0.00"/>
        <vehicle id="entering_flow.0" x="2796.86" y="2351.55" angle="23.56" type="car" speed="4.30" pos="22.61" lane="B1.2102_0" slope="0.00"/>
        <vehicle id="normal_flow.0" x="2790.50" y="2336.98" angle="23.56" type="car" speed="0.51" pos="6.71" lane="B1.2102_0" slope="0.00"/>
    </timestep>
    <timestep time="4.70">
        <vehicle id="drowsy_driver" x="2831.22" y="2438.33" angle="23.56" type="drowsy_car" speed="27.32" pos="115.89" lane="B1.2102_1" slope="0.00"/>
        <vehicle id="entering_flow.0" x="2797.01" y="2351.90" angle="23.56" type="car" speed="3.85" pos="22.99" lane="B1.2102_0" slope="0.00"/>
        <vehicle id="normal_flow.0" x="2790.52" y="2337.01" angle="23.56" type="car" speed="0.41" pos="6.76" lane="B1.2102_0" slope="0.00"/>
    </timestep>
    <timestep time="4.80">
        <vehicle id="drowsy_driver" x="2832.32" y="2440.85" angle="23.56" type="drowsy_car" speed="27.53" pos="118.65" lane="B1.2102_1" slope="0.00"/>
        <vehicle id="entering_flow.0" x="2797.15" y="2352.21" angle="23.56" type="car" speed="3.40" pos="23.33" lane="B1.2102_0" slope="0.00"/>
        <vehicle id="normal_flow.0" x="2790.53" y="2337.04" angle="23.56" type="car" speed="0.33" pos="6.79" lane="B1.2102_0" slope="0.00"/>
    </timestep>
    <timestep time="4.90">
        <vehicle id="drowsy_driver" x="2833.42" y="2443.39" angle="23.56" type="drowsy_car" speed="27.67" pos="121.41" lane="B1.2102_1" slope="0.00"/>
        <vehicle id="entering_flow.0" x="2797.27" y="2352.48" angle="23.56" type="car" speed="2.95" pos="23.63" lane="B1.2102_0" slope="0.00"/>
        <vehicle id="normal_flow.0" x="2790.54" y="2337.07" angle="23.56" type="car" speed="0.26" pos="6.81" lane="B1.2102_0" slope="0.00"/>
    </timestep>
    <timestep time="5.00">
        <vehicle id="drowsy_driver" x="2834.53" y="2445.93" angle="23.56" type="drowsy_car" speed="27.74" pos="124.19" lane="B1.2102_1" slope="0.00"/>
        <vehicle id="entering_flow.0" x="2797.37" y="2352.71" angle="23.56" type="car" speed="2.50" pos="23.87" lane="B1.2102_0" slope="0.00"/>
        <vehicle id="normal_flow.0" x="2790.55" y="2337.09" angle="23.56" type="car" speed="0.21" pos="6.84" lane="B1.2102_0" slope="0.00"/>
    </timestep>
    <timestep time="5.10">
        <vehicle id="drowsy_driver" x="2835.65" y="2448.50" angle="23.56" type="drowsy_car" speed="27.97" pos="126.98" lane="B1.2102_1" slope="0.00"/>
        <vehicle id="entering_flow.0" x="2797.45" y="2352.90" angle="23.56" type="car" speed="2.05" pos="24.08" lane="B1.2102_0" slope="0.00"/>
        <vehicle id="normal_flow.0" x="2790.56" y="2337.10" angle="23.56" type="car" speed="0.17" pos="6.85" lane="B1.2102_0" slope="0.00"/>
    </timestep>
    <timestep time="5.20">
        <vehicle id="drowsy_driver" x="2836.78" y="2451.08" angle="23.56" type="drowsy_car" speed="28.18" pos="129.80" lane="B1.2102_1" slope="0.00"/>
        <vehicle id="entering_flow.0" x="2797.51" y="2353.05" angle="23.56" type="car" speed="1.64" pos="24.24" lane="B1.2102_0" slope="0.00"/>
        <vehicle id="normal_flow.0" x="2790.57" y="2337.11" angle="23.56" type="car" speed="0.13" pos="6.87" lane="B1.2102_0" slope="0.00"/>
    </timestep>
    <timestep time="5.30">
        <vehicle id="drowsy_driver" x="2837.91" y="2453.67" angle="23.56" type="drowsy_car" speed="28.28" pos="132.63" lane="B1.2102_1" slope="0.00"/>
        <vehicle id="entering_flow.0" x="2797.57" y="2353.17" angle="23.56" type="car" speed="1.31" pos="24.37" lane="B1.2102_0" slope="0.00"/>
        <vehicle id="normal_flow.0" x="2790.57" y="2337.12" angle="23.56" type="car" speed="0.11" pos="6.88" lane="B1.2102_0" slope="0.00"/>
    </timestep>
    <timestep time="5.40">
        <vehicle id="drowsy_driver" x="2839.04" y="2456.27" angle="23.56" type="drowsy_car" speed="28.41" pos="135.47" lane="B1.2102_1" slope="0.00"/>
        <vehicle id="entering_flow.0" x="2797.61" y="2353.26" angle="23.56" type="car" speed="1.05" pos="24.48" lane="B1.2102_0" slope="0.00"/>
        <vehicle id="normal_flow.0" x="2790.57" y="2337.13" angle="23.56" type="car" speed="0.09" pos="6.89" lane="B1.2102_0" slope="0.00"/>
    </timestep>
    <timestep time="5.50">
        <vehicle id="drowsy_driver" x="2840.19" y="2458.89" angle="23.56" type="drowsy_car" speed="28.58" pos="138.33" lane="B1.2102_1" slope="0.00"/>
        <vehicle id="entering_flow.0" x="2797.64" y="2353.34" angle="23.56" type="car" speed="0.84" pos="24.56" lane="B1.2102_0" slope="0.00"/>
        <vehicle id="normal_flow.0" x="2790.58" y="2337.14" angle="23.56" type="car" speed="0.07" pos="6.89" lane="B1.2102_0" slope="0.00"/>
    </timestep>
    <timestep time="5.60">
        <vehicle id="drowsy_driver" x="2841.33" y="2461.53" angle="23.56" type="drowsy_car" speed="28.71" pos="141.20" lane="B1.2102_1" slope="0.00"/>
        <vehicle id="entering_flow.0" x="2797.67" y="2353.40" angle="23.56" type="car" speed="0.67" pos="24.63" lane="B1.2102_0" slope="0.00"/>
        <vehicle id="normal_flow.0" x="2790.58" y="2337.14" angle="23.56" type="car" speed="0.06" pos="6.90" lane="B1.2102_0" slope="0.00"/>
    </timestep>
    <timestep time="5.70">
        <vehicle id="drowsy_driver" x="2842.49" y="2464.17" angle="23.56" type="drowsy_car" speed="28.86" pos="144.09" lane="B1.2102_1" slope="0.00"/>
        <vehicle id="entering_flow.0" x="2797.69" y="2353.45" angle="23.56" type="car" speed="0.54" pos="24.68" lane="B1.2102_0" slope="0.00"/>
        <vehicle id="normal_flow.0" x="2790.58" y="2337.15" angle="23.56" type="car" speed="0.04" pos="6.90" lane="B1.2102_0" slope="0.00"/>
    </timestep>
    <timestep time="5.80">
        <vehicle id="drowsy_driver" x="2843.65" y="2466.84" angle="23.56" type="drowsy_car" speed="29.09" pos="146.99" lane="B1.2102_1" slope="0.00"/>
        <vehicle id="entering_flow.0" x="2797.70" y="2353.47" angle="23.56" type="car" speed="0.27" pos="24.71" lane="B1.2102_0" slope="0.00"/>
        <vehicle id="normal_flow.0" x="2790.58" y="2337.15" angle="23.56" type="car" speed="0.02" pos="6.90" lane="B1.2102_0" slope="0.00"/>
    </timestep>
    <timestep time="5.90">
        <vehicle id="drowsy_driver" x="2844.82" y="2469.53" angle="23.56" type="drowsy_car" speed="29.32" pos="149.93" lane="B1.2102_1" slope="0.00"/>
        <vehicle id="entering_flow.0" x="2797.71" y="2353.49" angle="23.56" type="car" speed="0.13" pos="24.72" lane="B1.2102_0" slope="0.00"/>
        <vehicle id="normal_flow.0" x="2790.58" y="2337.15" angle="23.56" type="car" speed="0.01" pos="6.91" lane="B1.2102_0" slope="0.00"/>
    </timestep>
    <timestep time="6.00">
        <vehicle id="drowsy_driver" x="2846.00" y="2472.24" angle="23.56" type="drowsy_car" speed="29.57" pos="152.88" lane="B1.2102_1" slope="0.00"/>
        <vehicle id="entering_flow.0" x="2797.71" y="2353.49" angle="23.56" type="car" speed="0.07" pos="24.73" lane="B1.2102_0" slope="0.00"/>
        <vehicle id="normal_flow.0" x="2790.58" y="2337.15" angle="23.56" type="car" speed="0.01" pos="6.91" lane="B1.2102_0" slope="0.00"/>
    </timestep>
    <timestep time="6.10">
        <vehicle id="drowsy_driver" x="2847.19" y="2474.97" angle="23.56" type="drowsy_car" speed="29.79" pos="155.86" lane="B1.2102_1" slope="0.00"/>
        <vehicle id="entering_flow.0" x="2797.71" y="2353.50" angle="23.56" type="car" speed="0.03" pos="24.73" lane="B1.2102_0" slope="0.00"/>
        <vehicle id="normal_flow.0" x="2790.58" y="2337.15" angle="23.56" type="car" speed="0.00" pos="6.91" lane="B1.2102_0" slope="0.00"/>
    </timestep>
    <timestep time="6.20">
        <vehicle id="drowsy_driver" x="2848.39" y="2477.71" angle="23.56" type="drowsy_car" speed="29.91" pos="158.85" lane="B1.2102_1" slope="0.00"/>
        <vehicle id="entering_flow.0" x="2797.71" y="2353.50" angle="23.56" type="car" speed="0.02" pos="24.73" lane="B1.2102_0" slope="0.00"/>
        <vehicle id="normal_flow.0" x="2790.58" y="2337.15" angle="23.56" type="car" speed="0.00" pos="6.91" lane="B1.2102_0" slope="0.00"/>
    </timestep>
    <timestep time="6.30">
        <vehicle id="drowsy_driver" x="2849.59" y="2480.46" angle="23.56" type="drowsy_car" speed="30.07" pos="161.86" lane="B1.2102_1" slope="0.00"/>
        <vehicle id="entering_flow.0" x="2797.71" y="2353.50" angle="23.56" type="car" speed="0.01" pos="24.74" lane="B1.2102_0" slope="0.00"/>
        <vehicle id="normal_flow.0" x="2790.58" y="2337.15" angle="23.56" type="car" speed="0.00" pos="6.91" lane="B1.2102_0" slope="0.00"/>
    </timestep>
    <timestep time="6.40">
        <vehicle id="drowsy_driver" x="2850.73" y="2483.27" angle="22.62" type="drowsy_car" speed="30.28" pos="164.89" lane="B1.2102_1" slope="0.00"/>
        <vehicle id="entering_flow.0" x="2797.71" y="2353.50" angle="23.56" type="car" speed="0.00" pos="24.74" lane="B1.2102_0" slope="0.00"/>
        <vehicle id="normal_flow.0" x="2790.58" y="2337.15" angle="23.56" type="car" speed="0.00" pos="6.91" lane="B1.2102_0" slope="0.00"/>
    </timestep>
    <timestep time="6.50">
        <vehicle id="drowsy_driver" x="2851.87" y="2486.09" angle="21.94" type="drowsy_car" speed="30.41" pos="167.93" lane="B1.2102_1" slope="0.00"/>
        <vehicle id="entering_flow.0" x="2797.71" y="2353.50" angle="23.56" type="car" speed="0.00" pos="24.74" lane="B1.2102_0" slope="0.00"/>
        <vehicle id="normal_flow.0" x="2790.58" y="2337.15" angle="23.56" type="car" speed="0.00" pos="6.91" lane="B1.2102_0" slope="0.00"/>
    </timestep>
    <timestep time="6.60">
        <vehicle id="drowsy_driver" x="2853.01" y="2488.93" angle="21.94" type="drowsy_car" speed="30.59" pos="170.99" lane="B1.2102_1" slope="0.00"/>
        <vehicle id="entering_flow.0" x="2797.71" y="2353.50" angle="23.56" type="car" speed="0.00" pos="24.74" lane="B1.2102_0" slope="0.00"/>
        <vehicle id="normal_flow.0" x="2790.58" y="2337.15" angle="23.56" type="car" speed="0.00" pos="6.91" lane="B1.2102_0" slope="0.00"/>
    </timestep>
    <timestep time="6.70">
        <vehicle id="drowsy_driver" x="2854.16" y="2491.77" angle="21.94" type="drowsy_car" speed="30.68" pos="174.06" lane="B1.2102_1" slope="0.00"/>
        <vehicle id="entering_flow.0" x="2797.71" y="2353.50" angle="23.56" type="car" speed="0.00" pos="24.74" lane="B1.2102_0" slope="0.00"/>
        <vehicle id="normal_flow.0" x="2790.58" y="2337.15" angle="23.56" type="car" speed="0.00" pos="6.91" lane="B1.2102_0" slope="0.00"/>
    </timestep>
    <timestep time="6.80">
        <vehicle id="drowsy_driver" x="2855.31" y="2494.63" angle="21.94" type="drowsy_car" speed="30.77" pos="177.13" lane="B1.2102_1" slope="0.00"/>
        <vehicle id="entering_flow.0" x="2797.71" y="2353.50" angle="23.56" type="car" speed="0.00" pos="24.74" lane="B1.2102_0" slope="0.00"/>
        <vehicle id="normal_flow.0" x="2790.58" y="2337.15" angle="23.56" type="car" speed="0.00" pos="6.91" lane="B1.2102_0" slope="0.00"/>
    </timestep>
    <timestep time="6.90">
        <vehicle id="drowsy_driver" x="2856.46" y="2497.49" angle="21.94" type="drowsy_car" speed="30.84" pos="180.22" lane="B1.2102_1" slope="0.00"/>