<?xml version="1.0" encoding="UTF-8"?>

<!-- generated on 2024-09-19 22:25:55 by Eclipse SUMO GUI Version v1_20_0+1676-0884fd201b0
<sumoConfiguration xmlns:xsi="http://www.w3.org/2001/XMLSchema-instance" xsi:noNamespaceSchemaLocation="http://sumo.dlr.de/xsd/sumoConfiguration.xsd">

    <input>
        <net-file value="highway.net.xml"/>
        <route-files value="highway.rou.xml"/>
        <additional-files value="toll_stops.add.xml"/>
    </input>

    <output>
        <fcd-output value="highway_fcd.xml"/>
    </output>

    <time>
        <begin value="0"/>
        <end value="1000"/>
        <step-length value="0.1"/>
    </time>

    <processing>
        <time-to-teleport value="-1"/>
    </processing>

    <report>
        <message-log value="results/sumo-0.log"/>
        <no-step-log value="true"/>
    </report>

    <traci_server>
        <remote-port value="37435"/>
    </traci_server>

    <random_number>
        <seed value="23423"/>
    </random_number>

    <gui_only>
        <quit-on-end value="true"/>
    </gui_only>

</sumoConfiguration>
-->

<fcd-export xmlns:xsi="http://www.w3.org/2001/XMLSchema-instance" xsi:noNamespaceSchemaLocation="http://sumo.dlr.de/xsd/fcd_file.xsd">
    <timestep time="0.00">
        <vehicle id="vehA" x="2786.73" y="2336.32" angle="23.56" type="car_speeding" speed="10.00" pos="4.60" lane="B1.2102_1" slope="0.00"/>
    </timestep>
    <timestep time="0.10">
        <vehicle id="vehA" x="2787.14" y="2337.25" angle="23.56" type="car_speeding" speed="10.20" pos="5.62" lane="B1.2102_1" slope="0.00"/>
    </timestep>
    <timestep time="0.20">
        <vehicle id="vehA" x="2787.55" y="2338.21" angle="23.56" type="car_speeding" speed="10.45" pos="6.66" lane="B1.2102_1" slope="0.00"/>
    </timestep>
    <timestep time="0.30">
        <vehicle id="vehA" x="2787.98" y="2339.18" angle="23.56" type="car_speeding" speed="10.62" pos="7.73" lane="B1.2102_1" slope="0.00"/>
    </timestep>
    <timestep time="0.40">
        <vehicle id="vehA" x="2788.41" y="2340.17" angle="23.56" type="car_speeding" speed="10.78" pos="8.80" lane="B1.2102_1" slope="0.00"/>
    </timestep>
    <timestep time="0.50">
        <vehicle id="vehA" x="2788.85" y="2341.19" angle="23.56" type="car_speeding" speed="11.08" pos="9.91" lane="B1.2102_1" slope="0.00"/>
    </timestep>
    <timestep time="0.60">
        <vehicle id="vehA" x="2789.31" y="2342.23" angle="23.56" type="car_speeding" speed="11.37" pos="11.05" lane="B1.2102_1" slope="0.00"/>
    </timestep>
    <timestep time="0.70">
        <vehicle id="vehA" x="2789.77" y="2343.29" angle="23.56" type="car_speeding" speed="11.54" pos="12.20" lane="B1.2102_1" slope="0.00"/>
    </timestep>
    <timestep time="0.80">
        <vehicle id="vehA" x="2790.24" y="2344.36" angle="23.56" type="car_speeding" speed="11.73" pos="13.38" lane="B1.2102_1" slope="0.00"/>
    </timestep>
    <timestep time="0.90">
        <vehicle id="vehA" x="2790.72" y="2345.46" angle="23.56" type="car_speeding" speed="11.98" pos="14.57" lane="B1.2102_1" slope="0.00"/>
    </timestep>
    <timestep time="1.00">
        <vehicle id="normal_cars.0" x="2789.66" y="2335.04" angle="23.56" type="car_normal" speed="33.33" pos="4.60" lane="B1.2102_0" slope="0.00"/>
        <vehicle id="vehA" x="2791.20" y="2346.58" angle="23.56" type="car_speeding" speed="12.18" pos="15.79" lane="B1.2102_1" slope="0.00"/>
    </timestep>
    <timestep time="1.10">
        <vehicle id="normal_cars.0" x="2790.99" y="2338.08" angle="23.56" type="car_normal" speed="33.20" pos="7.92" lane="B1.2102_0" slope="0.00"/>
        <vehicle id="vehA" x="2791.70" y="2347.71" angle="23.56" type="car_speeding" speed="12.35" pos="17.03" lane="B1.2102_1" slope="0.00"/>
    </timestep>
    <timestep time="1.20">
        <vehicle id="normal_cars.0" x="2792.30" y="2341.08" angle="23.56" type="car_normal" speed="32.75" pos="11.20" lane="B1.2102_0" slope="0.00"/>
        <vehicle id="vehA" x="2792.20" y="2348.86" angle="23.56" type="car_speeding" speed="12.61" pos="18.29" lane="B1.2102_1" slope="0.00"/>
    </timestep>
    <timestep time="1.30">
        <vehicle id="normal_cars.0" x="2793.59" y="2344.05" angle="23.56" type="car_normal" speed="32.30" pos="14.43" lane="B1.2102_0" slope="0.00"/>
        <vehicle id="vehA" x="2792.72" y="2350.05" angle="23.56" type="car_speeding" speed="12.90" pos="19.58" lane="B1.2102_1" slope="0.00"/>
    </timestep>
    <timestep time="1.40">
        <vehicle id="normal_cars.0" x="2794.86" y="2346.97" angle="23.56" type="car_normal" speed="31.85" pos="17.61" lane="B1.2102_0" slope="0.00"/>
        <vehicle id="vehA" x="2793.24" y="2351.25" angle="23.56" type="car_speeding" speed="13.18" pos="20.90" lane="B1.2102_1" slope="0.00"/>
    </timestep>
    <timestep time="1.50">
        <vehicle id="normal_cars.0" x="2796.12" y="2349.85" angle="23.56" type="car_normal" speed="31.40" pos="20.75" lane="B1.2102_0" slope="0.00"/>
        <vehicle id="vehA" x="2793.78" y="2352.49" angle="23.56" type="car_speeding" speed="13.46" pos="22.24" lane="B1.2102_1" slope="0.00"/>
    </timestep>
    <timestep time="1.60">
        <vehicle id="normal_cars.0" x="2797.36" y="2352.68" angle="23.56" type="car_normal" speed="30.95" pos="23.85" lane="B1.2102_0" slope="0.00"/>
        <vehicle id="vehA" x="2794.33" y="2353.75" angle="23.56" type="car_speeding" speed="13.73" pos="23.62" lane="B1.2102_1" slope="0.00"/>
    </timestep>
    <timestep time="1.70">
        <vehicle id="normal_cars.0" x="2798.60" y="2355.54" angle="23.56" type="car_normal" speed="31.13" pos="26.96" lane="B1.2102_0" slope="0.00"/>
        <vehicle id="vehA" x="2794.89" y="2355.02" angle="23.56" type="car_speeding" speed="13.93" pos="25.01" lane="B1.2102_1" slope="0.00"/>
    </timestep>
    <timestep time="1.80">
        <vehicle id="normal_cars.0" x="2799.85" y="2358.41" angle="23.56" type="car_normal" speed="31.32" pos="30.09" lane="B1.2102_0" slope="0.00"/>
        <vehicle id="vehA" x="2795.45" y="2356.32" angle="23.56" type="car_speeding" speed="14.14" pos="26.42" lane="B1.2102_1" slope="0.00"/>
    </timestep>
    <timestep time="1.90">
        <vehicle id="normal_cars.0" x="2801.11" y="2361.30" angle="23.56" type="car_normal" speed="31.56" pos="33.25" lane="B1.2102_0" slope="0.00"/>
        <vehicle id="vehA" x="2796.03" y="2357.64" angle="23.56" type="car_speeding" speed="14.38" pos="27.86" lane="B1.2102_1" slope="0.00"/>
    </timestep>
    <timestep time="2.00">
        <vehicle id="normal_cars.0" x="2802.38" y="2364.21" angle="23.56" type="car_normal" speed="31.76" pos="36.42" lane="B1.2102_0" slope="0.00"/>
        <vehicle id="vehA" x="2796.61" y="2358.97" angle="23.56" type="car_speeding" speed="14.54" pos="29.32" lane="B1.2102_1" slope="0.00"/>
    </timestep>
    <timestep time="2.10">
        <vehicle id="normal_cars.0" x="2803.66" y="2367.15" angle="23.56" type="car_normal" speed="31.97" pos="39.62" lane="B1.2102_0" slope="0.00"/>
        <vehicle id="vehA" x="2797.20" y="2360.32" angle="23.56" type="car_speeding" speed="14.73" pos="30.79" lane="B1.2102_1" slope="0.00"/>
    </timestep>
    <timestep time="2.20">
        <vehicle id="normal_cars.0" x="2804.95" y="2370.09" angle="23.56" type="car_normal" speed="32.17" pos="42.84" lane="B1.2102_0" slope="0.00"/>
        <vehicle id="vehA" x="2797.80" y="2361.69" angle="23.56" type="car_speeding" speed="14.99" pos="32.29" lane="B1.2102_1" slope="0.00"/>
    </timestep>
    <timestep time="2.30">
        <vehicle id="normal_cars.0" x="2806.24" y="2373.06" angle="23.56" type="car_normal" speed="32.31" pos="46.07" lane="B1.2102_0" slope="0.00"/>
        <vehicle id="vehA" x="2798.40" y="2363.08" angle="23.56" type="car_speeding" speed="15.15" pos="33.80" lane="B1.2102_1" slope="0.00"/>
    </timestep>
    <timestep time="2.40">
        <vehicle id="normal_cars.0" x="2807.54" y="2376.03" angle="23.56" type="car_normal" speed="32.44" pos="49.31" lane="B1.2102_0" slope="0.00"/>
        <vehicle id="vehA" x="2799.02" y="2364.49" angle="23.56" type="car_speeding" speed="15.36" pos="35.34" lane="B1.2102_1" slope="0.00"/>
    </timestep>
    <timestep time="2.50">
        <vehicle id="normal_cars.0" x="2808.84" y="2379.03" angle="23.56" type="car_normal" speed="32.67" pos="52.58" lane="B1.2102_0" slope="0.00"/>
        <vehicle id="vehA" x="2799.64" y="2365.92" angle="23.56" type="car_speeding" speed="15.58" pos="36.90" lane="B1.2102_1" slope="0.00"/>
    </timestep>
    <timestep time="2.60">
        <vehicle id="normal_cars.0" x="2810.16" y="2382.04" angle="23.56" type="car_normal" speed="32.89" pos="55.87" lane="B1.2102_0" slope="0.00"/>
        <vehicle id="vehA" x="2800.27" y="2367.36" angle="23.56" type="car_speeding" speed="15.76" pos="38.47" lane="B1.2102_1" slope="0.00"/>
    </timestep>
    <timestep time="2.70">
        <vehicle id="normal_cars.0" x="2811.48" y="2385.08" angle="23.56" type="car_normal" speed="33.10" pos="59.18" lane="B1.2102_0" slope="0.00"/>
        <vehicle id="vehA" x="2800.91" y="2368.83" angle="23.56" type="car_speeding" speed="15.97" pos="40.07" lane="B1.2102_1" slope="0.00"/>
    </timestep>
    <timestep time="2.80">
        <vehicle id="normal_cars.0" x="2812.81" y="2388.12" angle="23.56" type="car_normal" speed="33.21" pos="62.50" lane="B1.2102_0" slope="0.00"/>
        <vehicle id="vehA" x="2801.55" y="2370.31" angle="23.56" type="car_speeding" speed="16.20" pos="41.69" lane="B1.2102_1" slope="0.00"/>
    </timestep>
    <timestep time="2.90">
        <vehicle id="normal_cars.0" x="2814.14" y="2391.17" angle="23.56" type="car_normal" speed="33.29" pos="65.83" lane="B1.2102_0" slope="0.00"/>
        <vehicle id="vehA" x="2802.21" y="2371.82" angle="23.56" type="car_speeding" speed="16.49" pos="43.34" lane="B1.2102_1" slope="0.00"/>
    </timestep>
    <timestep time="3.00">
        <vehicle id="normal_cars.0" x="2815.47" y="2394.22" angle="23.56" type="car_normal" speed="33.25" pos="69.15" lane="B1.2102_0" slope="0.00"/>
        <vehicle id="vehA" x="2802.88" y="2373.36" angle="23.56" type="car_speeding" speed="16.72" pos="45.01" lane="B1.2102_1" slope="0.00"/>
    </timestep>
    <timestep time="3.10">
        <vehicle id="normal_cars.0" x="2816.80" y="2397.27" angle="23.56" type="car_normal" speed="33.26" pos="72.48" lane="B1.2102_0" slope="0.00"/>
        <vehicle id="vehA" x="2803.56" y="2374.91" angle="23.56" type="car_speeding" speed="16.93" pos="46.70" lane="B1.2102_1" slope="0.00"/>
    </timestep>
    <timestep time="3.20">
        <vehicle id="normal_cars.0" x="2818.13" y="2400.32" angle="23.56" type="car_normal" speed="33.25" pos="75.81" lane="B1.2102_0" slope="0.00"/>
        <vehicle id="vehA" x="2804.24" y="2376.48" angle="23.56" type="car_speeding" speed="17.11" pos="48.41" lane="B1.2102_1" slope="0.00"/>
    </timestep>
    <timestep time="3.30">
        <vehicle id="normal_cars.0" x="2819.46" y="2403.37" angle="23.56" type="car_normal" speed="33.25" pos="79.13" lane="B1.2102_0" slope="0.00"/>
        <vehicle id="vehA" x="2804.93" y="2378.06" angle="23.56" type="car_speeding" speed="17.29" pos="50.14" lane="B1.2102_1" slope="0.00"/>
    </timestep>
    <timestep time="3.40">
        <vehicle id="normal_cars.0" x="2820.79" y="2406.42" angle="23.56" type="car_normal" speed="33.28" pos="82.46" lane="B1.2102_0" slope="0.00"/>
        <vehicle id="vehA" x="2805.63" y="2379.66" angle="23.56" type="car_speeding" speed="17.46" pos="51.89" lane="B1.2102_1" slope="0.00"/>
    </timestep>
    <timestep time="3.50">
        <vehicle id="normal_cars.0" x="2822.12" y="2409.47" angle="23.56" type="car_normal" speed="33.27" pos="85.78" lane="B1.2102_0" slope="0.00"/>
        <vehicle id="normal_cars.1" x="2789.66" y="2335.04" angle="23.56" type="car_normal" speed="33.33" pos="4.60" lane="B1.2102_0" slope="0.00"/>
        <vehicle id="vehA" x="2806.34" y="2381.28" angle="23.56" type="car_speeding" speed="17.70" pos="53.66" lane="B1.2102_1" slope="0.00"/>
    </timestep>
    <timestep time="3.60">
        <vehicle id="normal_cars.0" x="2823.45" y="2412.52" angle="23.56" type="car_normal" speed="33.32" pos="89.12" lane="B1.2102_0" slope="0.00"/>
        <vehicle id="normal_cars.1" x="2790.99" y="2338.09" angle="23.56" type="car_normal" speed="33.24" pos="7.92" lane="B1.2102_0" slope="0.00"/>
        <vehicle id="vehA" x="2807.06" y="2382.93" angle="23.56" type="car_speeding" speed="17.95" pos="55.45" lane="B1.2102_1" slope="0.00"/>
    </timestep>
    <timestep time="3.70">
        <vehicle id="normal_cars.0" x="2824.78" y="2415.57" angle="23.56" type="car_normal" speed="33.27" pos="92.44" lane="B1.2102_0" slope="0.00"/>
        <vehicle id="normal_cars.1" x="2792.30" y="2341.09" angle="23.56" type="car_normal" speed="32.79" pos="11.20" lane="B1.2102_0" slope="0.00"/>
        <vehicle id="vehA" x="2807.78" y="2384.59" angle="23.56" type="car_speeding" speed="18.12" pos="57.26" lane="B1.2102_1" slope="0.00"/>
    </timestep>
    <timestep time="3.80">
        <vehicle id="normal_cars.0" x="2826.12" y="2418.63" angle="23.56" type="car_normal" speed="33.32" pos="95.78" lane="B1.2102_0" slope="0.00"/>
        <vehicle id="normal_cars.1" x="2793.59" y="2344.06" angle="23.56" type="car_normal" speed="32.34" pos="14.44" lane="B1.2102_0" slope="0.00"/>
        <vehicle id="vehA" x="2808.52" y="2386.28" angle="23.56" type="car_speeding" speed="18.41" pos="59.11" lane="B1.2102_1" slope="0.00"/>
    </timestep>
    <timestep time="3.90">
        <vehicle id="normal_cars.0" x="2827.44" y="2421.67" angle="23.56" type="car_normal" speed="33.22" pos="99.10" lane="B1.2102_0" slope="0.00"/>
        <vehicle id="normal_cars.1" x="2794.87" y="2346.98" angle="23.56" type="car_normal" speed="31.89" pos="17.63" lane="B1.2102_0" slope="0.00"/>
        <vehicle id="vehA" x="2809.26" y="2387.99" angle="23.56" type="car_speeding" speed="18.67" pos="60.97" lane="B1.2102_1" slope="0.00"/>
    </timestep>
    <timestep time="4.00">
        <vehicle id="normal_cars.0" x="2828.78" y="2424.73" angle="23.56" type="car_normal" speed="33.33" pos="102.43" lane="B1.2102_0" slope="0.00"/>
        <vehicle id="normal_cars.1" x="2796.13" y="2349.86" angle="23.56" type="car_normal" speed="31.44" pos="20.77" lane="B1.2102_0" slope="0.00"/>
        <vehicle id="vehA" x="2810.02" y="2389.73" angle="23.56" type="car_speeding" speed="18.96" pos="62.87" lane="B1.2102_1" slope="0.00"/>
    </timestep>
    <timestep time="4.10">
        <vehicle id="normal_cars.0" x="2830.11" y="2427.78" angle="23.56" type="car_normal" speed="33.30" pos="105.76" lane="B1.2102_0" slope="0.00"/>
        <vehicle id="normal_cars.1" x="2797.36" y="2352.71" angle="23.56" type="car_normal" speed="30.99" pos="23.87" lane="B1.2102_0" slope="0.00"/>
        <vehicle id="vehA" x="2810.79" y="2391.49" angle="23.56" type="car_speeding" speed="19.23" pos="64.79" lane="B1.2102_1" slope="0.00"/>
    </timestep>
    <timestep time="4.20">
        <vehicle id="normal_cars.0" x="2831.44" y="2430.84" angle="23.56" type="car_normal" speed="33.31" pos="109.09" lane="B1.2102_0" slope="0.00"/>
        <vehicle id="normal_cars.1" x="2798.59" y="2355.51" angle="23.56" type="car_normal" speed="30.54" pos="26.93" lane="B1.2102_0" slope="0.00"/>
        <vehicle id="vehA" x="2811.57" y="2393.27" angle="23.56" type="car_speeding" speed="19.41" pos="66.73" lane="B1.2102_1" slope="0.00"/>
    </timestep>
    <timestep time="4.30">
        <vehicle id="normal_cars.0" x="2832.77" y="2433.89" angle="23.56" type="car_normal" speed="33.25" pos="112.42" lane="B1.2102_0" slope="0.00"/>
        <vehicle id="normal_cars.1" x="2799.79" y="2358.26" angle="23.56" type="car_normal" speed="30.09" pos="29.94" lane="B1.2102_0" slope="0.00"/>
        <vehicle id="vehA" x="2812.35" y="2395.07" angle="23.56" type="car_speeding" speed="19.61" pos="68.69" lane="B1.2102_1" slope="0.00"/>
    </timestep>
    <timestep time="4.40">
        <vehicle id="normal_cars.0" x="2834.10" y="2436.93" angle="23.56" type="car_normal" speed="33.25" pos="115.74" lane="B1.2102_0" slope="0.00"/>
        <vehicle id="normal_cars.1" x="2800.97" y="2360.98" angle="23.56" type="car_normal" speed="29.64" pos="32.90" lane="B1.2102_0" slope="0.00"/>
        <vehicle id="vehA" x="2813.14" y="2396.88" angle="23.56" type="car_speeding" speed="19.78" pos="70.67" lane="B1.2102_1" slope="0.00"/>
    </timestep>
    <timestep time="4.50">
        <vehicle id="normal_cars.0" x="2835.43" y="2439.99" angle="23.56" type="car_normal" speed="33.32" pos="119.07" lane="B1.2102_0" slope="0.00"/>
        <vehicle id="normal_cars.1" x="2802.14" y="2363.66" angle="23.56" type="car_normal" speed="29.19" pos="35.82" lane="B1.2102_0" slope="0.00"/>
        <vehicle id="vehA" x="2813.94" y="2398.72" angle="23.56" type="car_speeding" speed="20.06" pos="72.68" lane="B1.2102_1" slope="0.00"/>
    </timestep>
    <timestep time="4.60">
        <vehicle id="normal_cars.0" x="2836.76" y="2443.04" angle="23.56" type="car_normal" speed="33.32" pos="122.41" lane="B1.2102_0" slope="0.00"/>
        <vehicle id="normal_cars.1" x="2803.29" y="2366.29" angle="23.56" type="car_normal" speed="28.74" pos="38.69" lane="B1.2102_0" slope="0.00"/>
        <vehicle id="vehA" x="2814.75" y="2400.57" angle="23.56" type="car_speeding" speed="20.27" pos="74.70" lane="B1.2102_1" slope="0.00"/>
    </timestep>
    <timestep time="4.70">
        <vehicle id="normal_cars.0" x="2838.09" y="2446.09" angle="23.56" type="car_normal" speed="33.23" pos="125.73" lane="B1.2102_0" slope="0.00"/>
        <vehicle id="normal_cars.1" x="2804.42" y="2368.89" angle="23.56" type="car_normal" speed="28.29" pos="41.52" lane="B1.2102_0" slope="0.00"/>
        <vehicle id="vehA" x="2815.57" y="2402.46" angle="23.56" type="car_speeding" speed="20.56" pos="76.76" lane="B1.2102_1" slope="0.00"/>
    </timestep>
    <timestep time="4.80">
        <vehicle id="normal_cars.0" x="2839.42" y="2449.14" angle="23.56" type="car_normal" speed="33.28" pos="129.06" lane="B1.2102_0" slope="0.00"/>
        <vehicle id="normal_cars.1" x="2805.54" y="2371.44" angle="23.56" type="car_normal" speed="27.84" pos="44.31" lane="B1.2102_0" slope="0.00"/>
        <vehicle id="vehA" x="2816.41" y="2404.37" angle="23.56" type="car_speeding" speed="20.83" pos="78.84" lane="B1.2102_1" slope="0.00"/>
    </timestep>
    <timestep time="4.90">
        <vehicle id="normal_cars.0" x="2840.75" y="2452.19" angle="23.56" type="car_normal" speed="33.24" pos="132.38" lane="B1.2102_0" slope="0.00"/>
        <vehicle id="normal_cars.1" x="2806.63" y="2373.95" angle="23.56" type="car_normal" speed="27.39" pos="47.05" lane="B1.2102_0" slope="0.00"/>
        <vehicle id="vehA" x="2817.25" y="2406.30" angle="23.56" type="car_speeding" speed="21.04" pos="80.95" lane="B1.2102_1" slope="0.00"/>
    </timestep>
    <timestep time="5.00">
        <vehicle id="normal_cars.0" x="2842.08" y="2455.24" angle="23.56" type="car_normal" speed="33.33" pos="135.71" lane="B1.2102_0" slope="0.00"/>
        <vehicle id="normal_cars.1" x="2807.71" y="2376.42" angle="23.56" type="car_normal" speed="26.94" pos="49.74" lane="B1.2102_0" slope="0.00"/>
        <vehicle id="vehA" x="2818.10" y="2408.24" angle="23.56" type="car_speeding" speed="21.21" pos="83.07" lane="B1.2102_1" slope="0.00"/>
    </timestep>
    <timestep time="5.10">
        <vehicle id="normal_cars.0" x="2843.41" y="2458.29" angle="23.56" type="car_normal" speed="33.24" pos="139.04" lane="B1.2102_0" slope="0.00"/>
        <vehicle id="normal_cars.1" x="2808.77" y="2378.85" angle="23.56" type="car_normal" speed="26.49" pos="52.39" lane="B1.2102_0" slope="0.00"/>
        <vehicle id="vehA" x="2818.95" y="2410.21" angle="23.56" type="car_speeding" speed="21.48" pos="85.22" lane="B1.2102_1" slope="0.00"/>
    </timestep>
    <timestep time="5.20">
        <vehicle id="normal_cars.0" x="2844.74" y="2461.34" angle="23.56" type="car_normal" speed="33.21" pos="142.36" lane="B1.2102_0" slope="0.00"/>
        <vehicle id="normal_cars.1" x="2806.87" y="2382.51" angle="23.56" type="car_normal" speed="26.04" pos="54.99" lane="B1.2102_1" slope="0.00"/>
        <vehicle id="vehA" x="2819.82" y="2412.21" angle="23.56" type="car_speeding" speed="21.75" pos="87.39" lane="B1.2102_1" slope="0.00"/>
    </timestep>
    <timestep time="5.30">
        <vehicle id="normal_cars.0" x="2846.07" y="2464.38" angle="23.56" type="car_normal" speed="33.23" pos="145.68" lane="B1.2102_0" slope="0.00"/>
        <vehicle id="normal_cars.1" x="2807.89" y="2384.85" angle="23.56" type="car_normal" speed="25.52" pos="57.55" lane="B1.2102_1" slope="0.00"/>
        <vehicle id="vehA" x="2820.70" y="2414.22" angle="23.56" type="car_speeding" speed="21.93" pos="89.58" lane="B1.2102_1" slope="0.00"/>
    </timestep>
    <timestep time="5.40">
        <vehicle id="normal_cars.0" x="2847.40" y="2467.43" angle="23.56" type="car_normal" speed="33.24" pos="149.01" lane="B1.2102_0" slope="0.00"/>
        <vehicle id="normal_cars.1" x="2808.89" y="2387.14" angle="23.56" type="car_normal" speed="25.02" pos="60.05" lane="B1.2102_1" slope="0.00"/>
        <vehicle id="vehA" x="2821.59" y="2416.25" angle="23.56" type="car_speeding" speed="22.17" pos="91.80" lane="B1.2102_1" slope="0.00"/>
    </timestep>
    <timestep time="5.50">
        <vehicle id="normal_cars.0" x="2848.73" y="2470.49" angle="23.56" type="car_normal" speed="33.33" pos="152.34" lane="B1.2102_0" slope="0.00"/>
        <vehicle id="normal_cars.1" x="2809.88" y="2389.39" angle="23.56" type="car_normal" speed="24.55" pos="62.50" lane="B1.2102_1" slope="0.00"/>
        <vehicle id="vehA" x="2822.48" y="2418.30" angle="23.56" type="car_speeding" speed="22.38" pos="94.04" lane="B1.2102_1" slope="0.00"/>
    </timestep>
    <timestep time="5.60">
        <vehicle id="normal_cars.0" x="2850.06" y="2473.53" angle="23.56" type="car_normal" speed="33.23" pos="155.66" lane="B1.2102_0" slope="0.00"/>
        <vehicle id="normal_cars.1" x="2810.84" y="2391.60" angle="23.56" type="car_normal" speed="24.10" pos="64.91" lane="B1.2102_1" slope="0.00"/>
        <vehicle id="vehA" x="2823.39" y="2420.38" angle="23.56" type="car_speeding" speed="22.66" pos="96.31" lane="B1.2102_1" slope="0.00"/>
    </timestep>
    <timestep time="5.70">
        <vehicle id="normal_cars.0" x="2851.39" y="2476.58" angle="23.56" type="car_normal" speed="33.23" pos="158.98" lane="B1.2102_0" slope="0.00"/>
        <vehicle id="normal_cars.1" x="2811.78" y="2393.77" angle="23.56" type="car_normal" speed="23.65" pos="67.28" lane="B1.2102_1" slope="0.00"/>
        <vehicle id="vehA" x="2824.30" y="2422.48" angle="23.56" type="car_speeding" speed="22.93" pos="98.60" lane="B1.2102_1" slope="0.00"/>
    </timestep>
    <timestep time="5.80">
        <vehicle id="normal_cars.0" x="2852.72" y="2479.63" angle="23.55" type="car_normal" speed="33.31" pos="162.32" lane="B1.2102_0" slope="0.00"/>
        <vehicle id="normal_cars.1" x="2812.71" y="2395.90" angle="23.56" type="car_normal" speed="23.20" pos="69.60" lane="B1.2102_1" slope="0.00"/>
        <vehicle id="vehA" x="2825.23" y="2424.60" angle="23.56" type="car_speeding" speed="23.16" pos="100.91" lane="B1.2102_1" slope="0.00"/>
    </timestep>
    <timestep time="5.90">
        <vehicle id="normal_cars.0" x="2853.96" y="2482.72" angle="22.35" type="car_normal" speed="33.28" pos="165.64" lane="B1.2102_0" slope="0.00"/>
        <vehicle id="normal_cars.1" x="2813.64" y="2398.03" angle="23.56" type="car_normal" speed="23.30" pos="71.93" lane="B1.2102_1" slope="0.00"/>
        <vehicle id="vehA" x="2826.16" y="2426.74" angle="23.56" type="car_speeding" speed="23.36" pos="103.25" lane="B1.2102_1" slope="0.00"/>
    </timestep>
    <timestep time="6.00">
        <vehicle id="normal_cars.0" x="2855.20" y="2485.80" angle="21.94" type="car_normal" speed="33.23" pos="168.97" lane="B1.2102_0" slope="0.00"/>
        <vehicle id="normal_cars.1" x="2814.58" y="2400.18" angle="23.56" type="car_normal" speed="23.41" pos="74.27" lane="B1.2102_1" slope="0.00"/>
        <vehicle id="vehA" x="2827.10" y="2428.90" angle="23.56" type="car_speeding" speed="23.54" pos="105.60" lane="B1.2102_1" slope="0.00"/>
    </timestep>
    <timestep time="6.10">
        <vehicle id="normal_cars.0" x="2856.45" y="2488.89" angle="21.94" type="car_normal" speed="33.27" pos="172.29" lane="B1.2102_0" slope="0.00"/>
        <vehicle id="normal_cars.1" x="2815.52" y="2402.34" angle="23.56" type="car_normal" speed="23.57" pos="76.63" lane="B1.2102_1" slope="0.00"/>
        <vehicle id="vehA" x="2828.05" y="2431.07" angle="23.56" type="car_speeding" speed="23.70" pos="107.97" lane="B1.2102_1" slope="0.00"/>
    </timestep>
    <timestep time="6.20">
        <vehicle id="normal_cars.0" x="2857.69" y="2491.98" angle="21.94" type="car_normal" speed="33.26" pos="175.62" lane="B1.2102_0" slope="0.00"/>
        <vehicle id="normal_cars.1" x="2816.47" y="2404.51" angle="23.56" type="car_normal" speed="23.69" pos="79.00" lane="B1.2102_1" slope="0.00"/>
        <vehicle id="vehA" x="2829.01" y="2433.26" angle="23.56" type="car_speeding" speed="23.92" pos="110.36" lane="B1.2102_1" slope="0.00"/>
    </timestep>
    <timestep time="6.30">
        <vehicle id="normal_cars.0" x="2858.93" y="2495.06" angle="21.94" type="car_normal" speed="33.23" pos="178.94" lane="B1.2102_0" slope="0.00"/>
        <vehicle id="normal_cars.1" x="2817.42" y="2406.70" angle="23.56" type="car_normal" speed="23.93" pos="81.39" lane="B1.2102_1" slope="0.00"/>
        <vehicle id="normal_cars.2" x="2789.66" y="2335.04" angle="23.56" type="car_normal" speed="33.33" pos="4.60" lane="B1.2102_0" slope="0.00"/>
        <vehicle id="vehA" x="2829.97" y="2435.48" angle="23.56" type="car_speeding" speed="24.18" pos="112.78" lane="B1.2102_1" slope="0.00"/>
    </timestep>
    <timestep time="6.40">
        <vehicle id="normal_cars.0" x="2860.17" y="2498.14" angle="21.94" type="car_normal" speed="33.26" pos="182.27" lane="B1.2102_0" slope="0.00"/>
        <vehicle id="normal_cars.1" x="2818.39" y="2408.92" angle="23.56" type="car_normal" speed="24.17" pos="83.80" lane="B1.2102_1" slope="0.00"/>
        <vehicle id="normal_cars.2" x="2790.99" y="2338.09" angle="23.56" type="car_normal" speed="33.27" pos="7.93" lane="B1.2102_0" slope="0.00"/>
        <vehicle id="vehA" x="2830.95" y="2437.72" angle="23.56" type="car_speeding" speed="24.45" pos="115.23" lane="B1.2102_1" slope="0.00"/>
    </timestep>
    <timestep time="6.50">
        <vehicle id="normal_cars.0" x="2861.42" y="2501.24" angle="21.94" type="car_normal" speed="33.32" pos="185.60" lane="B1.2102_0" slope="0.00"/>
        <vehicle id="normal_cars.1" x="2819.36" y="2411.15" angle="23.56" type="car_normal" speed="24.39" pos="86.24" lane="B1.2102_1" slope="0.00"/>
        <vehicle id="normal_cars.2" x="2792.30" y="2341.10" angle="23.56" type="car_normal" speed="32.82" pos="11.21" lane="B1.2102_0" slope="0.00"/>
        <vehicle id="vehA" x="2831.94" y="2439.98" angle="23.56" type="car_speeding" speed="24.69" pos="117.70" lane="B1.2102_1" slope="0.00"/>
    </timestep>
    <timestep time="6.60">
        <vehicle id="normal_cars.0" x="2862.66" y="2504.33" angle="21.94" type="car_normal" speed="33.32" pos="188.93" lane="B1.2102_0" slope="0.00"/>
        <vehicle id="normal_cars.1" x="2820.35" y="2413.41" angle="23.56" type="car_normal" speed="24.59" pos="88.70" lane="B1.2102_1" slope="0.00"/>
        <vehicle id="normal_cars.2" x="2793.60" y="2344.06" angle="23.56" type="car_normal" speed="32.37" pos="14.45" lane="B1.2102_0" slope="0.00"/>
        <vehicle id="vehA" x="2832.93" y="2442.27" angle="23.56" type="car_speeding" speed="24.92" pos="120.19" lane="B1.2102_1" slope="0.00"/>
    </timestep>
    <timestep time="6.70">
        <vehicle id="normal_cars.0" x="2863.91" y="2507.41" angle="21.94" type="car_normal" speed="33.25" pos="192.26" lane="B1.2102_0" slope="0.00"/>
        <vehicle id="normal_cars.1" x="2821.34" y="2415.68" angle="23.56" type="car_normal" speed="24.82" pos="91.18" lane="B1.2102_1" slope="0.00"/>
        <vehicle id="normal_cars.2" x="2794.87" y="2346.99" angle="23.56" type="car_normal" speed="31.92" pos="17.64" lane="B1.2102_0" slope="0.00"/>
        <vehicle id="vehA" x="2833.94" y="2444.57" angle="23.56" type="car_speeding" speed="25.14" pos="122.70" lane="B1.2102_1" slope="0.00"/>
    </timestep>
    <timestep time="6.80">
        <vehicle id="normal_cars.0" x="2865.15" y="2510.49" angle="21.94" type="car_normal" speed="33.23" pos="195.58" lane="B1.2102_0" slope="0.00"/>
        <vehicle id="normal_cars.1" x="2822.34" y="2417.97" angle="23.56" type="car_normal" speed="24.96" pos="93.68" lane="B1.2102_1" slope="0.00"/>
        <vehicle id="normal_cars.2" x="2796.13" y="2349.87" angle="23.56" type="car_normal" speed="31.47" pos="20.78" lane="B1.2102_0" slope="0.00"/>
        <vehicle id="vehA" x="2834.95" y="2446.89" angle="23.56" type="car_speeding" speed="25.34" pos="125.24" lane="B1.2102_1" slope="0.00"/>
    </timestep>
    <timestep time="6.90">
        <vehicle id="normal_cars.0" x="2866.39" y="2513.58" angle="21.94" type="car_normal" speed="33.29" pos="198.91" lane="B1.2102_0" slope="0.00"/>
        <vehicle id="normal_cars.1" x="2823.34" y="2420.27" angle="23.56" type="car_normal" speed="25.11" pos="96.19" lane="B1.2102_1" slope="0.00"/>
        <vehicle id="normal_cars.2" x="2797.37" y="2352.72" angle="23.56" type="car_normal" speed="31.02" pos="23.89" lane="B1.2102_0" slope="0.00"/>
        <vehicle id="vehA" x="2835.98" y="2449.24" angle="23.56" type="car_speeding" speed="25.64" pos="127.80" lane="B1.2102_1" slope="0.00"/>
    </timestep>
    <timestep time="7.00">
        <vehicle id="normal_cars.0" x="2867.64" y="2516.67" angle="21.94" type="car_normal" speed="33.31" pos="202.24" lane="B1.2102_0" slope="0.00"/>
        <vehicle id="normal_cars.1" x="2824.35" y="2422.59" angle="23.56" type="car_normal" speed="25.29" pos="98.72" lane="B1.2102_1" slope="0.00"/>