<?xml version="1.0" encoding="UTF-8"?>

<!-- generated on 2024-09-27 11:08:50 by Eclipse SUMO GUI Version v1_20_0+1676-0884fd201b0
<sumoConfiguration xmlns:xsi="http://www.w3.org/2001/XMLSchema-instance" xsi:noNamespaceSchemaLocation="http://sumo.dlr.de/xsd/sumoConfiguration.xsd">

    <input>
        <net-file value="highway.net.xml"/>
        <route-files value="highway.rou.xml"/>
        <additional-files value="toll_stops.add.xml,toll_shape.add.xml"/>
    </input>

    <output>
        <fcd-output value="highway_fcd.xml"/>
    </output>

    <time>
        <begin value="0"/>
        <end value="1000"/>
        <step-length value="0.1"/>
    </time>

    <processing>
        <time-to-teleport value="-1"/>
    </processing>

    <report>
        <message-log value="results/sumo-0.log"/>
        <no-step-log value="true"/>
    </report>

    <traci_server>
        <remote-port value="46199"/>
    </traci_server>

    <random_number>
        <seed value="23423"/>
    </random_number>

    <gui_only>
        <quit-on-end value="true"/>
    </gui_only>

</sumoConfiguration>
-->

<fcd-export xmlns:xsi="http://www.w3.org/2001/XMLSchema-instance" xsi:noNamespaceSchemaLocation="http://sumo.dlr.de/xsd/fcd_file.xsd">
    <timestep time="0.00">
        <vehicle id="veh0" x="2789.66" y="2335.04" angle="23.56" type="car_speeding" speed="30.00" pos="4.60" lane="B1.2102_0" slope="0.00"/>
    </timestep>
    <timestep time="0.10">
        <vehicle id="veh0" x="2790.86" y="2337.80" angle="23.56" type="car_speeding" speed="30.15" pos="7.62" lane="B1.2102_0" slope="0.00"/>
    </timestep>
    <timestep time="0.20">
        <vehicle id="veh0" x="2792.08" y="2340.59" angle="23.56" type="car_speeding" speed="30.39" pos="10.65" lane="B1.2102_0" slope="0.00"/>
    </timestep>
    <timestep time="0.30">
        <vehicle id="veh0" x="2793.30" y="2343.39" angle="23.56" type="car_speeding" speed="30.58" pos="13.71" lane="B1.2102_0" slope="0.00"/>
    </timestep>
    <timestep time="0.40">
        <vehicle id="veh0" x="2794.53" y="2346.21" angle="23.56" type="car_speeding" speed="30.79" pos="16.79" lane="B1.2102_0" slope="0.00"/>
    </timestep>
    <timestep time="0.50">
        <vehicle id="veh0" x="2795.78" y="2349.06" angle="23.56" type="car_speeding" speed="31.08" pos="19.90" lane="B1.2102_0" slope="0.00"/>
    </timestep>
    <timestep time="0.60">
        <vehicle id="veh0" x="2797.03" y="2351.93" angle="23.56" type="car_speeding" speed="31.29" pos="23.03" lane="B1.2102_0" slope="0.00"/>
    </timestep>
    <timestep time="0.70">
        <vehicle id="veh0" x="2798.29" y="2354.82" angle="23.56" type="car_speeding" speed="31.49" pos="26.18" lane="B1.2102_0" slope="0.00"/>
    </timestep>
    <timestep time="0.80">
        <vehicle id="veh0" x="2799.55" y="2357.73" angle="23.56" type="car_speeding" speed="31.71" pos="29.35" lane="B1.2102_0" slope="0.00"/>
    </timestep>
    <timestep time="0.90">
        <vehicle id="veh0" x="2800.83" y="2360.66" angle="23.56" type="car_speeding" speed="31.99" pos="32.55" lane="B1.2102_0" slope="0.00"/>
    </timestep>
    <timestep time="1.00">
        <vehicle id="veh0" x="2802.12" y="2363.61" angle="23.56" type="car_speeding" speed="32.22" pos="35.77" lane="B1.2102_0" slope="0.00"/>
    </timestep>
    <timestep time="1.10">
        <vehicle id="veh0" x="2803.42" y="2366.59" angle="23.56" type="car_speeding" speed="32.46" pos="39.01" lane="B1.2102_0" slope="0.00"/>
    </timestep>
    <timestep time="1.20">
        <vehicle id="veh0" x="2804.73" y="2369.59" angle="23.56" type="car_speeding" speed="32.68" pos="42.28" lane="B1.2102_0" slope="0.00"/>
    </timestep>
    <timestep time="1.30">
        <vehicle id="veh0" x="2806.04" y="2372.60" angle="23.56" type="car_speeding" speed="32.85" pos="45.57" lane="B1.2102_0" slope="0.00"/>
    </timestep>
    <timestep time="1.40">
        <vehicle id="veh0" x="2807.36" y="2375.62" angle="23.56" type="car_speeding" speed="33.00" pos="48.87" lane="B1.2102_0" slope="0.00"/>
    </timestep>
    <timestep time="1.50">
        <vehicle id="veh0" x="2808.69" y="2378.67" angle="23.56" type="car_speeding" speed="33.27" pos="52.19" lane="B1.2102_0" slope="0.00"/>
    </timestep>
    <timestep time="1.60">
        <vehicle id="veh0" x="2810.03" y="2381.75" angle="23.56" type="car_speeding" speed="33.52" pos="55.55" lane="B1.2102_0" slope="0.00"/>
    </timestep>
    <timestep time="1.70">
        <vehicle id="veh0" x="2811.38" y="2384.84" angle="23.56" type="car_speeding" speed="33.77" pos="58.92" lane="B1.2102_0" slope="0.00"/>
    </timestep>
    <timestep time="1.80">
        <vehicle id="veh0" x="2812.74" y="2387.95" angle="23.56" type="car_speeding" speed="33.93" pos="62.32" lane="B1.2102_0" slope="0.00"/>
    </timestep>
    <timestep time="1.90">
        <vehicle id="veh0" x="2814.10" y="2391.09" angle="23.56" type="car_speeding" speed="34.18" pos="65.73" lane="B1.2102_0" slope="0.00"/>
    </timestep>
    <timestep time="2.00">
        <vehicle id="veh0" x="2815.48" y="2394.24" angle="23.56" type="car_speeding" speed="34.39" pos="69.17" lane="B1.2102_0" slope="0.00"/>
    </timestep>
    <timestep time="2.10">
        <vehicle id="veh0" x="2816.86" y="2397.41" angle="23.56" type="car_speeding" speed="34.61" pos="72.63" lane="B1.2102_0" slope="0.00"/>
    </timestep>
    <timestep time="2.20">
        <vehicle id="veh0" x="2818.25" y="2400.60" angle="23.56" type="car_speeding" speed="34.81" pos="76.12" lane="B1.2102_0" slope="0.00"/>
    </timestep>
    <timestep time="2.30">
        <vehicle id="veh0" x="2819.65" y="2403.81" angle="23.56" type="car_speeding" speed="35.02" pos="79.62" lane="B1.2102_0" slope="0.00"/>
    </timestep>
    <timestep time="2.40">
        <vehicle id="veh0" x="2821.06" y="2407.05" angle="23.56" type="car_speeding" speed="35.26" pos="83.14" lane="B1.2102_0" slope="0.00"/>
    </timestep>
    <timestep time="2.50">
        <vehicle id="veh0" x="2822.48" y="2410.30" angle="23.56" type="car_speeding" speed="35.49" pos="86.69" lane="B1.2102_0" slope="0.00"/>
    </timestep>
    <timestep time="2.60">
        <vehicle id="veh0" x="2823.91" y="2413.58" angle="23.56" type="car_speeding" speed="35.78" pos="90.27" lane="B1.2102_0" slope="0.00"/>
    </timestep>
    <timestep time="2.70">
        <vehicle id="veh0" x="2825.35" y="2416.88" angle="23.56" type="car_speeding" speed="35.98" pos="93.87" lane="B1.2102_0" slope="0.00"/>
    </timestep>
    <timestep time="2.80">
        <vehicle id="veh0" x="2826.80" y="2420.20" angle="23.56" type="car_speeding" speed="36.21" pos="97.49" lane="B1.2102_0" slope="0.00"/>
    </timestep>
    <timestep time="2.90">
        <vehicle id="veh0" x="2828.26" y="2423.54" angle="23.56" type="car_speeding" speed="36.46" pos="101.14" lane="B1.2102_0" slope="0.00"/>
    </timestep>
    <timestep time="3.00">
        <vehicle id="veh0" x="2829.73" y="2426.91" angle="23.56" type="car_speeding" speed="36.75" pos="104.81" lane="B1.2102_0" slope="0.00"/>
    </timestep>
    <timestep time="3.10">
        <vehicle id="veh0" x="2831.21" y="2430.31" angle="23.56" type="car_speeding" speed="37.04" pos="108.51" lane="B1.2102_0" slope="0.00"/>
    </timestep>
    <timestep time="3.20">
        <vehicle id="veh0" x="2832.70" y="2433.72" angle="23.56" type="car_speeding" speed="37.21" pos="112.24" lane="B1.2102_0" slope="0.00"/>
    </timestep>
    <timestep time="3.30">
        <vehicle id="veh0" x="2834.20" y="2437.16" angle="23.56" type="car_speeding" speed="37.51" pos="115.99" lane="B1.2102_0" slope="0.00"/>
    </timestep>
    <timestep time="3.40">
        <vehicle id="veh0" x="2835.71" y="2440.62" angle="23.56" type="car_speeding" speed="37.80" pos="119.77" lane="B1.2102_0" slope="0.00"/>
    </timestep>
    <timestep time="3.50">
        <vehicle id="veh0" x="2837.23" y="2444.11" angle="23.56" type="car_speeding" speed="38.04" pos="123.57" lane="B1.2102_0" slope="0.00"/>
    </timestep>
    <timestep time="3.60">
        <vehicle id="veh0" x="2838.76" y="2447.62" angle="23.56" type="car_speeding" speed="38.24" pos="127.40" lane="B1.2102_0" slope="0.00"/>
    </timestep>
    <timestep time="3.70">
        <vehicle id="veh0" x="2840.28" y="2451.11" angle="23.56" type="car_speeding" speed="38.13" pos="131.21" lane="B1.2102_0" slope="0.00"/>
    </timestep>
    <timestep time="3.80">
        <vehicle id="veh0" x="2841.81" y="2454.62" angle="23.56" type="car_speeding" speed="38.26" pos="135.03" lane="B1.2102_0" slope="0.00"/>
    </timestep>
    <timestep time="3.90">
        <vehicle id="veh0" x="2843.34" y="2458.13" angle="23.56" type="car_speeding" speed="38.23" pos="138.86" lane="B1.2102_0" slope="0.00"/>
    </timestep>
    <timestep time="4.00">
        <vehicle id="veh0" x="2844.87" y="2461.63" angle="23.56" type="car_speeding" speed="38.18" pos="142.68" lane="B1.2102_0" slope="0.00"/>
    </timestep>
    <timestep time="4.10">
        <vehicle id="veh0" x="2846.40" y="2465.13" angle="23.56" type="car_speeding" speed="38.27" pos="146.50" lane="B1.2102_0" slope="0.00"/>
    </timestep>
    <timestep time="4.20">
        <vehicle id="veh0" x="2847.92" y="2468.64" angle="23.56" type="car_speeding" speed="38.18" pos="150.32" lane="B1.2102_0" slope="0.00"/>
    </timestep>
    <timestep time="4.30">
        <vehicle id="veh0" x="2849.45" y="2472.14" angle="23.56" type="car_speeding" speed="38.17" pos="154.14" lane="B1.2102_0" slope="0.00"/>
    </timestep>
    <timestep time="4.40">
        <vehicle id="veh0" x="2850.98" y="2475.64" angle="23.56" type="car_speeding" speed="38.27" pos="157.96" lane="B1.2102_0" slope="0.00"/>
    </timestep>
    <timestep time="4.50">
        <vehicle id="veh0" x="2852.51" y="2479.15" angle="23.56" type="car_speeding" speed="38.20" pos="161.78" lane="B1.2102_0" slope="0.00"/>
    </timestep>
    <timestep time="4.60">
        <vehicle id="veh0" x="2853.95" y="2482.69" angle="22.36" type="car_speeding" speed="38.27" pos="165.61" lane="B1.2102_0" slope="0.00"/>
    </timestep>
    <timestep time="4.70">
        <vehicle id="veh0" x="2855.38" y="2486.24" angle="21.94" type="car_speeding" speed="38.21" pos="169.43" lane="B1.2102_0" slope="0.00"/>
    </timestep>
    <timestep time="4.80">
        <vehicle id="veh0" x="2856.80" y="2489.78" angle="21.94" type="car_speeding" speed="38.16" pos="173.25" lane="B1.2102_0" slope="0.00"/>
    </timestep>
    <timestep time="4.90">
        <vehicle id="veh0" x="2858.23" y="2493.32" angle="21.94" type="car_speeding" speed="38.17" pos="177.07" lane="B1.2102_0" slope="0.00"/>
    </timestep>
    <timestep time="5.00">
        <vehicle id="veh0" x="2859.66" y="2496.86" angle="21.94" type="car_speeding" speed="38.21" pos="180.89" lane="B1.2102_0" slope="0.00"/>
        <vehicle id="veh1" x="2786.73" y="2336.32" angle="23.56" type="car_normal" speed="20.00" pos="4.60" lane="B1.2102_1" slope="0.00"/>
    </timestep>
    <timestep time="5.10">
        <vehicle id="veh0" x="2861.09" y="2500.41" angle="21.94" type="car_speeding" speed="38.19" pos="184.71" lane="B1.2102_0" slope="0.00"/>
        <vehicle id="veh1" x="2787.54" y="2338.17" angle="23.56" type="car_normal" speed="20.17" pos="6.62" lane="B1.2102_1" slope="0.00"/>
    </timestep>
    <timestep time="5.20">
        <vehicle id="veh0" x="2862.50" y="2503.91" angle="21.94" type="car_speeding" speed="37.74" pos="188.48" lane="B1.2102_0" slope="0.00"/>
        <vehicle id="veh1" x="2788.35" y="2340.03" angle="23.56" type="car_normal" speed="20.39" pos="8.66" lane="B1.2102_1" slope="0.00"/>
    </timestep>
    <timestep time="5.30">
        <vehicle id="veh0" x="2863.89" y="2507.37" angle="21.94" type="car_speeding" speed="37.29" pos="192.21" lane="B1.2102_0" slope="0.00"/>
        <vehicle id="veh1" x="2789.17" y="2341.92" angle="23.56" type="car_normal" speed="20.54" pos="10.71" lane="B1.2102_1" slope="0.00"/>
    </timestep>
    <timestep time="5.40">
        <vehicle id="veh0" x="2865.27" y="2510.78" angle="21.94" type="car_speeding" speed="36.84" pos="195.89" lane="B1.2102_0" slope="0.00"/>
        <vehicle id="veh1" x="2790.00" y="2343.81" angle="23.56" type="car_normal" speed="20.68" pos="12.78" lane="B1.2102_1" slope="0.00"/>
    </timestep>
    <timestep time="5.50">
        <vehicle id="veh0" x="2866.63" y="2514.16" angle="21.94" type="car_speeding" speed="36.39" pos="199.53" lane="B1.2102_0" slope="0.00"/>
        <vehicle id="veh1" x="2790.83" y="2345.73" angle="23.56" type="car_normal" speed="20.93" pos="14.87" lane="B1.2102_1" slope="0.00"/>
    </timestep>
    <timestep time="5.60">
        <vehicle id="veh0" x="2867.97" y="2517.49" angle="21.94" type="car_speeding" speed="35.94" pos="203.12" lane="B1.2102_0" slope="0.00"/>
        <vehicle id="veh1" x="2791.68" y="2347.67" angle="23.56" type="car_normal" speed="21.19" pos="16.99" lane="B1.2102_1" slope="0.00"/>
    </timestep>
    <timestep time="5.70">
        <vehicle id="veh0" x="2869.29" y="2520.79" angle="21.94" type="car_speeding" speed="35.49" pos="206.67" lane="B1.2102_0" slope="0.00"/>
        <vehicle id="veh1" x="2792.53" y="2349.63" angle="23.56" type="car_normal" speed="21.33" pos="19.12" lane="B1.2102_1" slope="0.00"/>
    </timestep>
    <timestep time="5.80">
        <vehicle id="veh0" x="2870.60" y="2524.04" angle="21.94" type="car_speeding" speed="35.04" pos="210.18" lane="B1.2102_0" slope="0.00"/>
        <vehicle id="veh1" x="2793.39" y="2351.60" angle="23.56" type="car_normal" speed="21.50" pos="21.27" lane="B1.2102_1" slope="0.00"/>
    </timestep>
    <timestep time="5.90">
        <vehicle id="veh0" x="2871.90" y="2527.25" angle="21.94" type="car_speeding" speed="34.59" pos="213.64" lane="B1.2102_0" slope="0.00"/>
        <vehicle id="veh1" x="2794.26" y="2353.59" angle="23.56" type="car_normal" speed="21.72" pos="23.44" lane="B1.2102_1" slope="0.00"/>
    </timestep>
    <timestep time="6.00">
        <vehicle id="veh0" x="2873.17" y="2530.41" angle="21.94" type="car_speeding" speed="34.14" pos="217.05" lane="B1.2102_0" slope="0.00"/>
        <vehicle id="veh1" x="2795.14" y="2355.60" angle="23.56" type="car_normal" speed="21.89" pos="25.63" lane="B1.2102_1" slope="0.00"/>
    </timestep>
    <timestep time="6.10">
        <vehicle id="veh0" x="2874.43" y="2533.54" angle="21.94" type="car_speeding" speed="33.69" pos="220.42" lane="B1.2102_0" slope="0.00"/>
        <vehicle id="veh1" x="2796.02" y="2357.62" angle="23.56" type="car_normal" speed="22.04" pos="27.84" lane="B1.2102_1" slope="0.00"/>
    </timestep>
    <timestep time="6.20">
        <vehicle id="veh0" x="2875.67" y="2536.62" angle="21.94" type="car_speeding" speed="33.24" pos="223.74" lane="B1.2102_0" slope="0.00"/>
        <vehicle id="veh1" x="2796.91" y="2359.66" angle="23.56" type="car_normal" speed="22.27" pos="30.06" lane="B1.2102_1" slope="0.00"/>
    </timestep>
    <timestep time="6.30">
        <vehicle id="veh0" x="2876.90" y="2539.67" angle="21.94" type="car_speeding" speed="32.79" pos="227.02" lane="B1.2102_0" slope="0.00"/>
        <vehicle id="veh1" x="2797.81" y="2361.72" angle="23.56" type="car_normal" speed="22.51" pos="32.31" lane="B1.2102_1" slope="0.00"/>
    </timestep>
    <timestep time="6.40">
        <vehicle id="veh0" x="2878.11" y="2542.67" angle="21.94" type="car_speeding" speed="32.34" pos="230.25" lane="B1.2102_0" slope="0.00"/>
        <vehicle id="veh1" x="2798.72" y="2363.81" angle="23.56" type="car_normal" speed="22.76" pos="34.59" lane="B1.2102_1" slope="0.00"/>
    </timestep>
    <timestep time="6.50">
        <vehicle id="veh0" x="2879.30" y="2545.62" angle="21.94" type="car_speeding" speed="31.89" pos="233.44" lane="B1.2102_0" slope="0.00"/>
        <vehicle id="veh1" x="2799.64" y="2365.91" angle="23.56" type="car_normal" speed="23.00" pos="36.89" lane="B1.2102_1" slope="0.00"/>
    </timestep>
    <timestep time="6.60">
        <vehicle id="veh0" x="2880.47" y="2548.54" angle="21.94" type="car_speeding" speed="31.44" pos="236.59" lane="B1.2102_0" slope="0.00"/>
        <vehicle id="veh1" x="2800.57" y="2368.04" angle="23.56" type="car_normal" speed="23.24" pos="39.21" lane="B1.2102_1" slope="0.00"/>
    </timestep>
    <timestep time="6.70">
        <vehicle id="veh0" x="2881.63" y="2551.42" angle="21.94" type="car_speeding" speed="30.99" pos="239.69" lane="B1.2102_0" slope="0.00"/>
        <vehicle id="veh1" x="2801.50" y="2370.19" angle="23.56" type="car_normal" speed="23.41" pos="41.55" lane="B1.2102_1" slope="0.00"/>
    </timestep>
    <timestep time="6.80">
        <vehicle id="veh0" x="2882.77" y="2554.25" angle="21.94" type="car_speeding" speed="30.54" pos="242.74" lane="B1.2102_0" slope="0.00"/>
        <vehicle id="veh1" x="2802.44" y="2372.35" angle="23.56" type="car_normal" speed="23.59" pos="43.91" lane="B1.2102_1" slope="0.00"/>
    </timestep>
    <timestep time="6.90">
        <vehicle id="veh0" x="2883.90" y="2557.04" angle="21.94" type="car_speeding" speed="30.09" pos="245.75" lane="B1.2102_0" slope="0.00"/>
        <vehicle id="veh1" x="2803.40" y="2374.53" angle="23.56" type="car_normal" speed="23.80" pos="46.29" lane="B1.2102_1" slope="0.00"/>
    </timestep>
    <timestep time="7.00">
        <vehicle id="veh0" x="2885.00" y="2559.79" angle="21.94" type="car_speeding" speed="29.64" pos="248.71" lane="B1.2102_0" slope="0.00"/>
        <vehicle id="veh1" x="2804.35" y="2376.73" angle="23.56" type="car_normal" speed="23.93" pos="48.69" lane="B1.2102_1" slope="0.00"/>
    </timestep>
    <timestep time="7.10">
        <vehicle id="veh0" x="2886.09" y="2562.50" angle="21.94" type="car_speeding" speed="29.19" pos="251.63" lane="B1.2102_0" slope="0.00"/>
        <vehicle id="veh1" x="2805.32" y="2378.94" angle="23.56" type="car_normal" speed="24.10" pos="51.10" lane="B1.2102_1" slope="0.00"/>
    </timestep>
    <timestep time="7.20">
        <vehicle id="veh0" x="2887.17" y="2565.16" angle="21.94" type="car_speeding" speed="28.74" pos="254.50" lane="B1.2102_0" slope="0.00"/>
        <vehicle id="veh1" x="2806.29" y="2381.16" angle="23.56" type="car_normal" speed="24.32" pos="53.53" lane="B1.2102_1" slope="0.00"/>
    </timestep>
    <timestep time="7.30">
        <vehicle id="veh0" x="2888.22" y="2567.79" angle="21.94" type="car_speeding" speed="28.29" pos="257.33" lane="B1.2102_0" slope="0.00"/>
        <vehicle id="veh1" x="2807.27" y="2383.41" angle="23.56" type="car_normal" speed="24.47" pos="55.97" lane="B1.2102_1" slope="0.00"/>
    </timestep>
    <timestep time="7.40">
        <vehicle id="veh0" x="2889.26" y="2570.37" angle="21.94" type="car_speeding" speed="27.84" pos="260.12" lane="B1.2102_0" slope="0.00"/>
        <vehicle id="veh1" x="2808.25" y="2385.67" angle="23.56" type="car_normal" speed="24.64" pos="58.44" lane="B1.2102_1" slope="0.00"/>
    </timestep>
    <timestep time="7.50">
        <vehicle id="veh0" x="2890.29" y="2572.91" angle="21.94" type="car_speeding" speed="27.39" pos="262.86" lane="B1.2102_0" slope="0.00"/>
        <vehicle id="veh1" x="2809.24" y="2387.94" angle="23.56" type="car_normal" speed="24.84" pos="60.92" lane="B1.2102_1" slope="0.00"/>
    </timestep>
    <timestep time="7.60">
        <vehicle id="veh0" x="2891.29" y="2575.41" angle="21.94" type="car_speeding" speed="26.94" pos="265.55" lane="B1.2102_0" slope="0.00"/>
        <vehicle id="veh1" x="2810.24" y="2390.23" angle="23.56" type="car_normal" speed="24.99" pos="63.42" lane="B1.2102_1" slope="0.00"/>
    </timestep>
    <timestep time="7.70">
        <vehicle id="veh0" x="2892.28" y="2577.87" angle="21.94" type="car_speeding" speed="26.49" pos="268.20" lane="B1.2102_0" slope="0.00"/>
        <vehicle id="veh1" x="2811.25" y="2392.54" angle="23.56" type="car_normal" speed="25.18" pos="65.94" lane="B1.2102_1" slope="0.00"/>
    </timestep>
    <timestep time="7.80">
        <vehicle id="veh0" x="2893.26" y="2580.28" angle="21.94" type="car_speeding" speed="26.04" pos="270.80" lane="B1.2102_0" slope="0.00"/>
        <vehicle id="veh1" x="2812.26" y="2394.87" angle="23.56" type="car_normal" speed="25.37" pos="68.48" lane="B1.2102_1" slope="0.00"/>
    </timestep>
    <timestep time="7.90">
        <vehicle id="veh0" x="2894.21" y="2582.66" angle="21.94" type="car_speeding" speed="25.59" pos="273.36" lane="B1.2102_0" slope="0.00"/>
        <vehicle id="veh1" x="2813.29" y="2397.22" angle="23.56" type="car_normal" speed="25.62" pos="71.04" lane="B1.2102_1" slope="0.00"/>
    </timestep>
    <timestep time="8.00">
        <vehicle id="veh0" x="2895.15" y="2584.99" angle="21.94" type="car_speeding" speed="25.14" pos="275.87" lane="B1.2102_0" slope="0.00"/>
        <vehicle id="veh1" x="2814.32" y="2399.58" angle="23.56" type="car_normal" speed="25.82" pos="73.62" lane="B1.2102_1" slope="0.00"/>
    </timestep>
    <timestep time="8.10">
        <vehicle id="veh0" x="2896.08" y="2587.28" angle="21.94" type="car_speeding" speed="24.69" pos="278.34" lane="B1.2102_0" slope="0.00"/>
        <vehicle id="veh1" x="2815.36" y="2401.97" angle="23.56" type="car_normal" speed="26.00" pos="76.22" lane="B1.2102_1" slope="0.00"/>
    </timestep>
    <timestep time="8.20">
        <vehicle id="veh0" x="2896.98" y="2589.53" angle="21.94" type="car_speeding" speed="24.24" pos="280.77" lane="B1.2102_0" slope="0.00"/>
        <vehicle id="veh1" x="2816.40" y="2404.36" angle="23.56" type="car_normal" speed="26.16" pos="78.84" lane="B1.2102_1" slope="0.00"/>
    </timestep>
    <timestep time="8.30">
        <vehicle id="veh0" x="2897.87" y="2591.74" angle="21.94" type="car_speeding" speed="23.79" pos="283.15" lane="B1.2102_0" slope="0.00"/>
        <vehicle id="veh1" x="2817.46" y="2406.78" angle="23.56" type="car_normal" speed="26.32" pos="81.47" lane="B1.2102_1" slope="0.00"/>
    </timestep>
    <timestep time="8.40">
        <vehicle id="veh0" x="2898.74" y="2593.90" angle="21.94" type="car_speeding" speed="23.34" pos="285.48" lane="B1.2102_0" slope="0.00"/>
        <vehicle id="veh1" x="2818.51" y="2409.20" angle="23.56" type="car_normal" speed="26.47" pos="84.12" lane="B1.2102_1" slope="0.00"/>
    </timestep>
    <timestep time="8.50">
        <vehicle id="veh0" x="2899.60" y="2596.03" angle="21.94" type="car_speeding" speed="22.89" pos="287.77" lane="B1.2102_0" slope="0.00"/>
        <vehicle id="veh1" x="2819.58" y="2411.65" angle="23.56" type="car_normal" speed="26.68" pos="86.78" lane="B1.2102_1" slope="0.00"/>
    </timestep>
    <timestep time="8.60">
        <vehicle id="veh0" x="2900.44" y="2598.11" angle="21.94" type="car_speeding" speed="22.44" pos="290.01" lane="B1.2102_0" slope="0.00"/>
        <vehicle id="veh1" x="2820.66" y="2414.11" angle="23.56" type="car_normal" speed="26.89" pos="89.47" lane="B1.2102_1" slope="0.00"/>
    </timestep>
    <timestep time="8.70">
        <vehicle id="veh0" x="2901.26" y="2600.15" angle="21.94" type="car_speeding" speed="21.99" pos="292.21" lane="B1.2102_0" slope="0.00"/>
        <vehicle id="veh1" x="2821.74" y="2416.59" angle="23.56" type="car_normal" speed="27.04" pos="92.18" lane="B1.2102_1" slope="0.00"/>
    </timestep>
    <timestep time="8.80">
        <vehicle id="veh0" x="2902.06" y="2602.15" angle="21.94" type="car_speeding" speed="21.54" pos="294.36" lane="B1.2102_0" slope="0.00"/>
        <vehicle id="veh1" x="2822.83" y="2419.09" angle="23.56" type="car_normal" speed="27.29" pos="94.90" lane="B1.2102_1" slope="0.00"/>
    </timestep>
    <timestep time="8.90">
        <vehicle id="veh0" x="2902.85" y="2604.10" angle="21.94" type="car_speeding" speed="21.09" pos="296.47" lane="B1.2102_0" slope="0.00"/>
        <vehicle id="veh1" x="2823.93" y="2421.61" angle="23.56" type="car_normal" speed="27.51" pos="97.66" lane="B1.2102_1" slope="0.00"/>
    </timestep>
    <timestep time="9.00">
        <vehicle id="veh0" x="2903.62" y="2606.02" angle="21.94" type="car_speeding" speed="20.64" pos="298.54" lane="B1.2102_0" slope="0.00"/>
        <vehicle id="veh1" x="2825.04" y="2424.16" angle="23.56" type="car_normal" speed="27.76" pos="100.43" lane="B1.2102_1" slope="0.00"/>
    </timestep>
    <timestep time="9.10">
        <vehicle id="veh0" x="2904.38" y="2607.89" angle="21.94" type="car_speeding" speed="20.19" pos="300.56" lane="B1.2102_0" slope="0.00"/>
        <vehicle id="veh1" x="2826.16" y="2426.72" angle="23.56" type="car_normal" speed="28.00" pos="103.23" lane="B1.2102_1" slope="0.00"/>
    </timestep>
    <timestep time="9.20">
        <vehicle id="veh0" x="2905.11" y="2609.72" angle="21.94" type="car_speeding" speed="19.74" pos="302.53" lane="B1.2102_0" slope="0.00"/>
        <vehicle id="veh1" x="2827.28" y="2429.31" angle="23.56" type="car_normal" speed="28.16" pos="106.05" lane="B1.2102_1" slope="0.00"/>
    </timestep>
    <timestep time="9.30">
        <vehicle id="veh0" x="2905.83" y="2611.51" angle="21.94" type="car_speeding" speed="19.29" pos="304.46" lane="B1.2102_0" slope="0.00"/>
        <vehicle id="veh1" x="2828.41" y="2431.90" angle="23.56" type="car_normal" speed="28.33" pos="108.88" lane="B1.2102_1" slope="0.00"/>
    </timestep>
    <timestep time="9.40">
        <vehicle id="veh0" x="2906.55" y="2613.28" angle="21.94" type="car_speeding" speed="19.09" pos="306.37" lane="B1.2102_0" slope="0.00"/>
        <vehicle id="veh1" x="2829.55" y="2434.51" angle="23.56" type="car_normal" speed="28.47" pos="111.73" lane="B1.2102_1" slope="0.00"/>
    </timestep>
    <timestep time="9.50">
        <vehicle id="veh0" x="2907.26" y="2615.05" angle="21.94" type="car_speeding" speed="19.09" pos="308.28" lane="B1.2102_0" slope="0.00"/>
        <vehicle id="veh1" x="2830.70" y="2437.14" angle="23.56" type="car_normal" speed="28.72" pos="114.60" lane="B1.2102_1" slope="0.00"/>
    </timestep>
    <timestep time="9.60">
        <vehicle id="veh0" x="2907.97" y="2616.82" angle="21.94" type="car_speeding" speed="19.09" pos="310.19" lane="B1.2102_0" slope="0.00"/>
        <vehicle id="veh1" x="2831.86" y="2439.79" angle="23.56" type="car_normal" speed="28.90" pos="117.49" lane="B1.2102_1" slope="0.00"/>
    </timestep>
    <timestep time="9.70">
        <vehicle id="veh0" x="2908.69" y="2618.60" angle="21.94" type="car_speeding" speed="19.09" pos="312.10" lane="B1.2102_0" slope="0.00"/>
        <vehicle id="veh1" x="2833.02" y="2442.47" angle="23.56" type="car_normal" speed="29.16" pos="120.41" lane="B1.2102_1" slope="0.00"/>
    </timestep>
    <timestep time="9.80">
        <vehicle id="veh0" x="2909.40" y="2620.37" angle="21.94" type="car_speeding" speed="19.09" pos="314.00" lane="B1.2102_0" slope="0.00"/>
        <vehicle id="veh1" x="2834.20" y="2445.16" angle="23.56" type="car_normal" speed="29.39" pos="123.34" lane="B1.2102_1" slope="0.00"/>
    </timestep>
    <timestep time="9.90">
        <vehicle id="veh0" x="2910.11" y="2622.14" angle="21.94" type="car_speeding" speed="19.09" pos="315.91" lane="B1.2102_0" slope="0.00"/>
        <vehicle id="veh1" x="2835.38" y="2447.87" angle="23.56" type="car_normal" speed="29.57" pos="126.30" lane="B1.2102_1" slope="0.00"/>
    </timestep>
    <timestep time="10.00">
        <vehicle id="veh0" x="2910.83" y="2623.91" angle="21.94" type="car_speeding" speed="19.09" pos="317.82" lane="B1.2102_0" slope="0.00"/>
        <vehicle id="veh1" x="2836.57" y="2450.59" angle="23.56" type="car_normal" speed="29.72" pos="129.27" lane="B1.2102_1" slope="0.00"/>
        <vehicle id="veh2" x="2783.80" y="2337.60" angle="23.56" type="car_normal" speed="33.33" pos="4.60" lane="B1.2102_2" slope="0.00"/>
    </timestep>
    <timestep time="10.10">
        <vehicle id="veh0" x="2911.54" y="2625.68" angle="21.94" type="car_speeding" speed="19.09" pos="319.73" lane="B1.2102_0" slope="0.00"/>
        <vehicle id="veh1" x="2837.76" y="2453.34" angle="23.56" type="car_normal" speed="29.95" pos="132.27" lane="B1.2102_1" slope="0.00"/>
        <vehicle id="veh2" x="2785.13" y="2340.64" angle="23.56" type="car_normal" speed="33.27" pos="7.93" lane="B1.2102_2" slope="0.00"/>
    </timestep>
    <timestep time="10.20">
        <vehicle id="veh0" x="2912.26" y="2627.45" angle="21.94" type="car_speeding" speed="19.09" pos="321.64" lane="B1.2102_0" slope="0.00"/>
        <vehicle id="veh1" x="2838.97" y="2456.11" angle="23.56" type="car_normal" speed="30.18" pos="135.29" lane="B1.2102_1" slope="0.00"/>
        <vehicle id="veh2" x="2786.46" y="2343.69" angle="23.56" type="car_normal" speed="33.25" pos="11.25" lane="B1.2102_2" slope="0.00"/>
    </timestep>
    <timestep time="10.30">
        <vehicle id="veh0" x="2912.97" y="2629.23" angle="21.94" type="car_speeding" speed="19.09" pos="323.55" lane="B1.2102_0" slope="0.00"/>
        <vehicle id="veh1" x="2840.18" y="2458.89" angle="23.56" type="car_normal" speed="30.34" pos="138.32" lane="B1.2102_1" slope="0.00"/>
        <vehicle id="veh2" x="2787.78" y="2346.74" angle="23.56" type="car_normal" speed="33.22" pos="14.57" lane="B1.2102_2" slope="0.00"/>
    </timestep>
    <timestep time="10.40">
        <vehicle id="veh0" x="2913.68" y="2631.00" angle="21.94" type="car_speeding" speed="19.09" pos="325.46" lane="B1.2102_0" slope="0.00"/>
        <vehicle id="veh1" x="2841.40" y="2461.68" angle="23.56" type="car_normal" speed="30.52" pos="141.37" lane="B1.2102_1" slope="0.00"/>
        <vehicle id="veh2" x="2789.09" y="2349.74" angle="23.56" type="car_normal" speed="32.77" pos="17.85" lane="B1.2102_2" slope="0.00"/>
    </timestep>
    <timestep time="10.50">
        <vehicle id="veh0" x="2914.40" y="2632.77" angle="21.94" type="car_speeding" speed="19.09" pos="327.37" lane="B1.2102_0" slope="0.00"/>
        <vehicle id="veh1" x="2842.63" y="2464.50" angle="23.56" type="car_normal" speed="30.73" pos="144.45" lane="B1.2102_1" slope="0.00"/>
        <vehicle id="veh2" x="2790.39" y="2352.70" angle="23.56" type="car_normal" speed="32.32" pos="21.08" lane="B1.2102_2" slope="0.00"/>
    </timestep>
    <timestep time="10.60">
        <vehicle id="veh0" x="2915.11" y="2634.54" angle="21.94" type="car_speeding" speed="19.09" pos="329.28" lane="B1.2102_0" slope="0.00"/>