<?xml version="1.0" encoding="UTF-8"?>

<!-- generated on 2024-09-23 10:59:08 by Eclipse SUMO GUI Version v1_20_0+1676-0884fd201b0
<sumoConfiguration xmlns:xsi="http://www.w3.org/2001/XMLSchema-instance" xsi:noNamespaceSchemaLocation="http://sumo.dlr.de/xsd/sumoConfiguration.xsd">

    <input>
        <net-file value="highway.net.xml"/>
        <route-files value="highway.rou.xml"/>
        <additional-files value="toll_stops.add.xml"/>
    </input>

    <output>
        <fcd-output value="highway_fcd.xml"/>
    </output>

    <time>
        <begin value="0"/>
        <end value="1000"/>
        <step-length value="0.1"/>
    </time>

    <processing>
        <time-to-teleport value="-1"/>
    </processing>

    <report>
        <message-log value="results/sumo-0.log"/>
        <no-step-log value="true"/>
    </report>

    <traci_server>
        <remote-port value="54243"/>
    </traci_server>

    <random_number>
        <seed value="23423"/>
    </random_number>

    <gui_only>
        <quit-on-end value="true"/>
    </gui_only>

</sumoConfiguration>
-->

<fcd-export xmlns:xsi="http://www.w3.org/2001/XMLSchema-instance" xsi:noNamespaceSchemaLocation="http://sumo.dlr.de/xsd/fcd_file.xsd">
    <timestep time="0.00"/>
    <timestep time="0.10"/>
    <timestep time="0.20"/>
    <timestep time="0.30"/>
    <timestep time="0.40"/>
    <timestep time="0.50"/>
    <timestep time="0.60"/>
    <timestep time="0.70"/>
    <timestep time="0.80"/>
    <timestep time="0.90"/>
    <timestep time="1.00"/>
    <timestep time="1.10"/>
    <timestep time="1.20"/>
    <timestep time="1.30"/>
    <timestep time="1.40"/>
    <timestep time="1.50"/>
    <timestep time="1.60"/>
    <timestep time="1.70"/>
    <timestep time="1.80"/>
    <timestep time="1.90"/>
    <timestep time="2.00"/>
    <timestep time="2.10"/>
    <timestep time="2.20"/>
    <timestep time="2.30"/>
    <timestep time="2.40"/>
    <timestep time="2.50"/>
    <timestep time="2.60"/>
    <timestep time="2.70"/>
    <timestep time="2.80"/>
    <timestep time="2.90"/>
    <timestep time="3.00"/>
    <timestep time="3.10"/>
    <timestep time="3.20"/>
    <timestep time="3.30"/>
    <timestep time="3.40"/>
    <timestep time="3.50"/>
    <timestep time="3.60"/>
    <timestep time="3.70"/>
    <timestep time="3.80"/>
    <timestep time="3.90"/>
    <timestep time="4.00"/>
    <timestep time="4.10"/>
    <timestep time="4.20"/>
    <timestep time="4.30"/>
    <timestep time="4.40"/>
    <timestep time="4.50"/>
    <timestep time="4.60"/>
    <timestep time="4.70"/>
    <timestep time="4.80"/>
    <timestep time="4.90"/>
    <timestep time="5.00">
        <vehicle id="veh0" x="2786.73" y="2336.32" angle="23.56" type="car_normal" speed="20.00" pos="4.60" lane="B1.2102_1" slope="0.00"/>
    </timestep>
    <timestep time="5.10">
        <vehicle id="veh0" x="2787.54" y="2338.17" angle="23.56" type="car_normal" speed="20.17" pos="6.62" lane="B1.2102_1" slope="0.00"/>
    </timestep>
    <timestep time="5.20">
        <vehicle id="veh0" x="2788.35" y="2340.03" angle="23.56" type="car_normal" speed="20.39" pos="8.66" lane="B1.2102_1" slope="0.00"/>
    </timestep>
    <timestep time="5.30">
        <vehicle id="veh0" x="2789.17" y="2341.92" angle="23.56" type="car_normal" speed="20.54" pos="10.71" lane="B1.2102_1" slope="0.00"/>
    </timestep>
    <timestep time="5.40">
        <vehicle id="veh0" x="2790.00" y="2343.81" angle="23.56" type="car_normal" speed="20.68" pos="12.78" lane="B1.2102_1" slope="0.00"/>
    </timestep>
    <timestep time="5.50">
        <vehicle id="veh0" x="2790.83" y="2345.73" angle="23.56" type="car_normal" speed="20.93" pos="14.87" lane="B1.2102_1" slope="0.00"/>
    </timestep>
    <timestep time="5.60">
        <vehicle id="veh0" x="2791.68" y="2347.67" angle="23.56" type="car_normal" speed="21.19" pos="16.99" lane="B1.2102_1" slope="0.00"/>
    </timestep>
    <timestep time="5.70">
        <vehicle id="veh0" x="2792.53" y="2349.63" angle="23.56" type="car_normal" speed="21.33" pos="19.12" lane="B1.2102_1" slope="0.00"/>
    </timestep>
    <timestep time="5.80">
        <vehicle id="veh0" x="2793.39" y="2351.60" angle="23.56" type="car_normal" speed="21.50" pos="21.27" lane="B1.2102_1" slope="0.00"/>
    </timestep>
    <timestep time="5.90">
        <vehicle id="veh0" x="2794.26" y="2353.59" angle="23.56" type="car_normal" speed="21.72" pos="23.44" lane="B1.2102_1" slope="0.00"/>
    </timestep>
    <timestep time="6.00">
        <vehicle id="veh0" x="2795.14" y="2355.60" angle="23.56" type="car_normal" speed="21.89" pos="25.63" lane="B1.2102_1" slope="0.00"/>
    </timestep>
    <timestep time="6.10">
        <vehicle id="veh0" x="2796.02" y="2357.62" angle="23.56" type="car_normal" speed="22.04" pos="27.84" lane="B1.2102_1" slope="0.00"/>
    </timestep>
    <timestep time="6.20">
        <vehicle id="veh0" x="2796.91" y="2359.66" angle="23.56" type="car_normal" speed="22.27" pos="30.06" lane="B1.2102_1" slope="0.00"/>
    </timestep>
    <timestep time="6.30">
        <vehicle id="veh0" x="2797.81" y="2361.72" angle="23.56" type="car_normal" speed="22.51" pos="32.31" lane="B1.2102_1" slope="0.00"/>
    </timestep>
    <timestep time="6.40">
        <vehicle id="veh0" x="2798.72" y="2363.81" angle="23.56" type="car_normal" speed="22.76" pos="34.59" lane="B1.2102_1" slope="0.00"/>
    </timestep>
    <timestep time="6.50">
        <vehicle id="veh0" x="2799.64" y="2365.91" angle="23.56" type="car_normal" speed="23.00" pos="36.89" lane="B1.2102_1" slope="0.00"/>
    </timestep>
    <timestep time="6.60">
        <vehicle id="veh0" x="2800.57" y="2368.04" angle="23.56" type="car_normal" speed="23.24" pos="39.21" lane="B1.2102_1" slope="0.00"/>
    </timestep>
    <timestep time="6.70">
        <vehicle id="veh0" x="2801.50" y="2370.19" angle="23.56" type="car_normal" speed="23.41" pos="41.55" lane="B1.2102_1" slope="0.00"/>
    </timestep>
    <timestep time="6.80">
        <vehicle id="veh0" x="2802.44" y="2372.35" angle="23.56" type="car_normal" speed="23.59" pos="43.91" lane="B1.2102_1" slope="0.00"/>
    </timestep>
    <timestep time="6.90">
        <vehicle id="veh0" x="2803.40" y="2374.53" angle="23.56" type="car_normal" speed="23.80" pos="46.29" lane="B1.2102_1" slope="0.00"/>
    </timestep>
    <timestep time="7.00">
        <vehicle id="veh0" x="2804.35" y="2376.73" angle="23.56" type="car_normal" speed="23.93" pos="48.69" lane="B1.2102_1" slope="0.00"/>
    </timestep>
    <timestep time="7.10">
        <vehicle id="veh0" x="2805.32" y="2378.94" angle="23.56" type="car_normal" speed="24.10" pos="51.10" lane="B1.2102_1" slope="0.00"/>
    </timestep>
    <timestep time="7.20">
        <vehicle id="veh0" x="2806.29" y="2381.16" angle="23.56" type="car_normal" speed="24.32" pos="53.53" lane="B1.2102_1" slope="0.00"/>
    </timestep>
    <timestep time="7.30">
        <vehicle id="veh0" x="2807.27" y="2383.41" angle="23.56" type="car_normal" speed="24.47" pos="55.97" lane="B1.2102_1" slope="0.00"/>
    </timestep>
    <timestep time="7.40">
        <vehicle id="veh0" x="2808.25" y="2385.67" angle="23.56" type="car_normal" speed="24.64" pos="58.44" lane="B1.2102_1" slope="0.00"/>
    </timestep>
    <timestep time="7.50">
        <vehicle id="veh0" x="2809.24" y="2387.94" angle="23.56" type="car_normal" speed="24.84" pos="60.92" lane="B1.2102_1" slope="0.00"/>
    </timestep>
    <timestep time="7.60">
        <vehicle id="veh0" x="2810.24" y="2390.23" angle="23.56" type="car_normal" speed="24.99" pos="63.42" lane="B1.2102_1" slope="0.00"/>
    </timestep>
    <timestep time="7.70">
        <vehicle id="veh0" x="2811.25" y="2392.54" angle="23.56" type="car_normal" speed="25.18" pos="65.94" lane="B1.2102_1" slope="0.00"/>
    </timestep>
    <timestep time="7.80">
        <vehicle id="veh0" x="2812.26" y="2394.87" angle="23.56" type="car_normal" speed="25.37" pos="68.48" lane="B1.2102_1" slope="0.00"/>
    </timestep>
    <timestep time="7.90">
        <vehicle id="veh0" x="2813.29" y="2397.22" angle="23.56" type="car_normal" speed="25.62" pos="71.04" lane="B1.2102_1" slope="0.00"/>
    </timestep>
    <timestep time="8.00">
        <vehicle id="veh0" x="2814.32" y="2399.58" angle="23.56" type="car_normal" speed="25.82" pos="73.62" lane="B1.2102_1" slope="0.00"/>
    </timestep>
    <timestep time="8.10">
        <vehicle id="veh0" x="2815.36" y="2401.97" angle="23.56" type="car_normal" speed="26.00" pos="76.22" lane="B1.2102_1" slope="0.00"/>
    </timestep>
    <timestep time="8.20">
        <vehicle id="veh0" x="2816.40" y="2404.36" angle="23.56" type="car_normal" speed="26.16" pos="78.84" lane="B1.2102_1" slope="0.00"/>
    </timestep>
    <timestep time="8.30">
        <vehicle id="veh0" x="2817.46" y="2406.78" angle="23.56" type="car_normal" speed="26.32" pos="81.47" lane="B1.2102_1" slope="0.00"/>
    </timestep>
    <timestep time="8.40">
        <vehicle id="veh0" x="2818.51" y="2409.20" angle="23.56" type="car_normal" speed="26.47" pos="84.12" lane="B1.2102_1" slope="0.00"/>
    </timestep>
    <timestep time="8.50">
        <vehicle id="veh0" x="2819.58" y="2411.65" angle="23.56" type="car_normal" speed="26.68" pos="86.78" lane="B1.2102_1" slope="0.00"/>
    </timestep>
    <timestep time="8.60">
        <vehicle id="veh0" x="2820.66" y="2414.11" angle="23.56" type="car_normal" speed="26.89" pos="89.47" lane="B1.2102_1" slope="0.00"/>
    </timestep>
    <timestep time="8.70">
        <vehicle id="veh0" x="2821.74" y="2416.59" angle="23.56" type="car_normal" speed="27.04" pos="92.18" lane="B1.2102_1" slope="0.00"/>
    </timestep>
    <timestep time="8.80">
        <vehicle id="veh0" x="2822.83" y="2419.09" angle="23.56" type="car_normal" speed="27.29" pos="94.90" lane="B1.2102_1" slope="0.00"/>
    </timestep>
    <timestep time="8.90">
        <vehicle id="veh0" x="2823.93" y="2421.61" angle="23.56" type="car_normal" speed="27.51" pos="97.66" lane="B1.2102_1" slope="0.00"/>
    </timestep>
    <timestep time="9.00">
        <vehicle id="veh0" x="2825.04" y="2424.16" angle="23.56" type="car_normal" speed="27.76" pos="100.43" lane="B1.2102_1" slope="0.00"/>
    </timestep>
    <timestep time="9.10">
        <vehicle id="veh0" x="2826.16" y="2426.72" angle="23.56" type="car_normal" speed="28.00" pos="103.23" lane="B1.2102_1" slope="0.00"/>
    </timestep>
    <timestep time="9.20">
        <vehicle id="veh0" x="2827.28" y="2429.31" angle="23.56" type="car_normal" speed="28.16" pos="106.05" lane="B1.2102_1" slope="0.00"/>
    </timestep>
    <timestep time="9.30">
        <vehicle id="veh0" x="2828.41" y="2431.90" angle="23.56" type="car_normal" speed="28.33" pos="108.88" lane="B1.2102_1" slope="0.00"/>
    </timestep>
    <timestep time="9.40">
        <vehicle id="veh0" x="2829.55" y="2434.51" angle="23.56" type="car_normal" speed="28.47" pos="111.73" lane="B1.2102_1" slope="0.00"/>
    </timestep>
    <timestep time="9.50">
        <vehicle id="veh0" x="2830.70" y="2437.14" angle="23.56" type="car_normal" speed="28.72" pos="114.60" lane="B1.2102_1" slope="0.00"/>
    </timestep>
    <timestep time="9.60">
        <vehicle id="veh0" x="2831.86" y="2439.79" angle="23.56" type="car_normal" speed="28.90" pos="117.49" lane="B1.2102_1" slope="0.00"/>
    </timestep>
    <timestep time="9.70">
        <vehicle id="veh0" x="2833.02" y="2442.47" angle="23.56" type="car_normal" speed="29.16" pos="120.41" lane="B1.2102_1" slope="0.00"/>
    </timestep>
    <timestep time="9.80">
        <vehicle id="veh0" x="2834.20" y="2445.16" angle="23.56" type="car_normal" speed="29.39" pos="123.34" lane="B1.2102_1" slope="0.00"/>
    </timestep>
    <timestep time="9.90">
        <vehicle id="veh0" x="2835.38" y="2447.87" angle="23.56" type="car_normal" speed="29.57" pos="126.30" lane="B1.2102_1" slope="0.00"/>
    </timestep>
    <timestep time="10.00">
        <vehicle id="veh0" x="2836.57" y="2450.59" angle="23.56" type="car_normal" speed="29.72" pos="129.27" lane="B1.2102_1" slope="0.00"/>
        <vehicle id="veh2" x="2783.80" y="2337.60" angle="23.56" type="car_normal" speed="33.33" pos="4.60" lane="B1.2102_2" slope="0.00"/>
    </timestep>
    <timestep time="10.10">
        <vehicle id="veh0" x="2837.76" y="2453.34" angle="23.56" type="car_normal" speed="29.95" pos="132.27" lane="B1.2102_1" slope="0.00"/>
        <vehicle id="veh2" x="2785.13" y="2340.64" angle="23.56" type="car_normal" speed="33.27" pos="7.93" lane="B1.2102_2" slope="0.00"/>
    </timestep>
    <timestep time="10.20">
        <vehicle id="veh0" x="2838.97" y="2456.11" angle="23.56" type="car_normal" speed="30.18" pos="135.29" lane="B1.2102_1" slope="0.00"/>
        <vehicle id="veh2" x="2786.46" y="2343.69" angle="23.56" type="car_normal" speed="33.25" pos="11.25" lane="B1.2102_2" slope="0.00"/>
    </timestep>
    <timestep time="10.30">
        <vehicle id="veh0" x="2840.18" y="2458.89" angle="23.56" type="car_normal" speed="30.34" pos="138.32" lane="B1.2102_1" slope="0.00"/>
        <vehicle id="veh2" x="2787.78" y="2346.74" angle="23.56" type="car_normal" speed="33.22" pos="14.57" lane="B1.2102_2" slope="0.00"/>
    </timestep>
    <timestep time="10.40">
        <vehicle id="veh0" x="2841.40" y="2461.68" angle="23.56" type="car_normal" speed="30.52" pos="141.37" lane="B1.2102_1" slope="0.00"/>
        <vehicle id="veh2" x="2789.09" y="2349.74" angle="23.56" type="car_normal" speed="32.77" pos="17.85" lane="B1.2102_2" slope="0.00"/>
    </timestep>
    <timestep time="10.50">
        <vehicle id="veh0" x="2842.63" y="2464.50" angle="23.56" type="car_normal" speed="30.73" pos="144.45" lane="B1.2102_1" slope="0.00"/>
        <vehicle id="veh2" x="2790.39" y="2352.70" angle="23.56" type="car_normal" speed="32.32" pos="21.08" lane="B1.2102_2" slope="0.00"/>
    </timestep>
    <timestep time="10.60">
        <vehicle id="veh0" x="2843.87" y="2467.33" angle="23.56" type="car_normal" speed="30.91" pos="147.54" lane="B1.2102_1" slope="0.00"/>
        <vehicle id="veh2" x="2791.66" y="2355.62" angle="23.56" type="car_normal" speed="31.87" pos="24.27" lane="B1.2102_2" slope="0.00"/>
    </timestep>
    <timestep time="10.70">
        <vehicle id="veh0" x="2845.11" y="2470.18" angle="23.56" type="car_normal" speed="31.09" pos="150.65" lane="B1.2102_1" slope="0.00"/>
        <vehicle id="veh2" x="2792.92" y="2358.50" angle="23.56" type="car_normal" speed="31.42" pos="27.41" lane="B1.2102_2" slope="0.00"/>
    </timestep>
    <timestep time="10.80">
        <vehicle id="veh0" x="2846.36" y="2473.06" angle="23.56" type="car_normal" speed="31.34" pos="153.78" lane="B1.2102_1" slope="0.00"/>
        <vehicle id="veh2" x="2794.15" y="2361.34" angle="23.56" type="car_normal" speed="30.97" pos="30.51" lane="B1.2102_2" slope="0.00"/>
    </timestep>
    <timestep time="10.90">
        <vehicle id="veh0" x="2847.62" y="2475.95" angle="23.56" type="car_normal" speed="31.58" pos="156.94" lane="B1.2102_1" slope="0.00"/>
        <vehicle id="veh2" x="2795.37" y="2364.14" angle="23.56" type="car_normal" speed="30.52" pos="33.56" lane="B1.2102_2" slope="0.00"/>
    </timestep>
    <timestep time="11.00">
        <vehicle id="veh0" x="2848.90" y="2478.87" angle="23.56" type="car_normal" speed="31.83" pos="160.12" lane="B1.2102_1" slope="0.00"/>
        <vehicle id="veh2" x="2796.58" y="2366.90" angle="23.56" type="car_normal" speed="30.07" pos="36.57" lane="B1.2102_2" slope="0.00"/>
    </timestep>
    <timestep time="11.10">
        <vehicle id="veh0" x="2850.15" y="2481.82" angle="23.19" type="car_normal" speed="32.07" pos="163.33" lane="B1.2102_1" slope="0.00"/>
        <vehicle id="veh2" x="2797.76" y="2369.61" angle="23.56" type="car_normal" speed="29.62" pos="39.53" lane="B1.2102_2" slope="0.00"/>
    </timestep>
    <timestep time="11.20">
        <vehicle id="veh0" x="2851.36" y="2484.81" angle="22.02" type="car_normal" speed="32.24" pos="166.55" lane="B1.2102_1" slope="0.00"/>
        <vehicle id="veh2" x="2798.93" y="2372.28" angle="23.56" type="car_normal" speed="29.17" pos="42.45" lane="B1.2102_2" slope="0.00"/>
    </timestep>
    <timestep time="11.30">
        <vehicle id="veh0" x="2852.57" y="2487.82" angle="21.94" type="car_normal" speed="32.43" pos="169.79" lane="B1.2102_1" slope="0.00"/>
        <vehicle id="veh2" x="2800.07" y="2374.92" angle="23.56" type="car_normal" speed="28.72" pos="45.32" lane="B1.2102_2" slope="0.00"/>
    </timestep>
    <timestep time="11.40">
        <vehicle id="veh0" x="2853.79" y="2490.85" angle="21.94" type="car_normal" speed="32.66" pos="173.06" lane="B1.2102_1" slope="0.00"/>
        <vehicle id="veh2" x="2801.20" y="2377.51" angle="23.56" type="car_normal" speed="28.27" pos="48.15" lane="B1.2102_2" slope="0.00"/>
    </timestep>
    <timestep time="11.50">
        <vehicle id="veh0" x="2855.01" y="2493.89" angle="21.94" type="car_normal" speed="32.84" pos="176.34" lane="B1.2102_1" slope="0.00"/>
        <vehicle id="veh2" x="2802.31" y="2380.06" angle="23.56" type="car_normal" speed="27.82" pos="50.93" lane="B1.2102_2" slope="0.00"/>
    </timestep>
    <timestep time="11.60">
        <vehicle id="veh0" x="2856.25" y="2496.96" angle="21.94" type="car_normal" speed="33.05" pos="179.65" lane="B1.2102_1" slope="0.00"/>
        <vehicle id="veh2" x="2803.41" y="2382.57" angle="23.56" type="car_normal" speed="27.37" pos="53.67" lane="B1.2102_2" slope="0.00"/>
    </timestep>
    <timestep time="11.70">
        <vehicle id="veh0" x="2857.49" y="2500.04" angle="21.94" type="car_normal" speed="33.21" pos="182.97" lane="B1.2102_1" slope="0.00"/>
        <vehicle id="veh2" x="2804.48" y="2385.03" angle="23.56" type="car_normal" speed="26.92" pos="56.36" lane="B1.2102_2" slope="0.00"/>
    </timestep>
    <timestep time="11.80">
        <vehicle id="veh0" x="2858.73" y="2503.12" angle="21.94" type="car_normal" speed="33.23" pos="186.29" lane="B1.2102_1" slope="0.00"/>
        <vehicle id="veh2" x="2805.55" y="2387.47" angle="23.56" type="car_normal" speed="26.58" pos="59.02" lane="B1.2102_2" slope="0.00"/>
    </timestep>
    <timestep time="11.90">
        <vehicle id="veh0" x="2859.97" y="2506.20" angle="21.94" type="car_normal" speed="33.21" pos="189.61" lane="B1.2102_1" slope="0.00"/>
        <vehicle id="veh2" x="2806.61" y="2389.90" angle="23.56" type="car_normal" speed="26.58" pos="61.68" lane="B1.2102_2" slope="0.00"/>
    </timestep>
    <timestep time="12.00">
        <vehicle id="veh0" x="2861.21" y="2509.29" angle="21.94" type="car_normal" speed="33.24" pos="192.94" lane="B1.2102_1" slope="0.00"/>
        <vehicle id="veh2" x="2807.67" y="2392.34" angle="23.56" type="car_normal" speed="26.58" pos="64.34" lane="B1.2102_2" slope="0.00"/>
    </timestep>
    <timestep time="12.10">
        <vehicle id="veh0" x="2862.46" y="2512.37" angle="21.94" type="car_normal" speed="33.26" pos="196.26" lane="B1.2102_1" slope="0.00"/>
        <vehicle id="veh2" x="2808.73" y="2394.78" angle="23.56" type="car_normal" speed="26.58" pos="66.99" lane="B1.2102_2" slope="0.00"/>
    </timestep>
    <timestep time="12.20">
        <vehicle id="veh0" x="2863.70" y="2515.45" angle="21.94" type="car_normal" speed="33.21" pos="199.58" lane="B1.2102_1" slope="0.00"/>
        <vehicle id="veh2" x="2809.80" y="2397.21" angle="23.56" type="car_normal" speed="26.58" pos="69.65" lane="B1.2102_2" slope="0.00"/>
    </timestep>
    <timestep time="12.30">
        <vehicle id="veh0" x="2864.94" y="2518.54" angle="21.94" type="car_normal" speed="33.29" pos="202.91" lane="B1.2102_1" slope="0.00"/>
        <vehicle id="veh2" x="2810.86" y="2399.65" angle="23.56" type="car_normal" speed="26.58" pos="72.31" lane="B1.2102_2" slope="0.00"/>
    </timestep>
    <timestep time="12.40">
        <vehicle id="veh0" x="2866.19" y="2521.63" angle="21.94" type="car_normal" speed="33.31" pos="206.24" lane="B1.2102_1" slope="0.00"/>
        <vehicle id="veh2" x="2811.92" y="2402.08" angle="23.56" type="car_normal" speed="26.58" pos="74.97" lane="B1.2102_2" slope="0.00"/>
    </timestep>
    <timestep time="12.50">
        <vehicle id="veh0" x="2867.43" y="2524.72" angle="21.94" type="car_normal" speed="33.31" pos="209.58" lane="B1.2102_1" slope="0.00"/>
        <vehicle id="veh2" x="2812.98" y="2404.52" angle="23.56" type="car_normal" speed="26.58" pos="77.63" lane="B1.2102_2" slope="0.00"/>
    </timestep>
    <timestep time="12.60">
        <vehicle id="veh0" x="2868.67" y="2527.81" angle="21.94" type="car_normal" speed="33.31" pos="212.91" lane="B1.2102_1" slope="0.00"/>
        <vehicle id="veh2" x="2814.04" y="2406.95" angle="23.56" type="car_normal" speed="26.58" pos="80.28" lane="B1.2102_2" slope="0.00"/>
    </timestep>
    <timestep time="12.70">
        <vehicle id="veh0" x="2869.92" y="2530.90" angle="21.94" type="car_normal" speed="33.28" pos="216.23" lane="B1.2102_1" slope="0.00"/>
        <vehicle id="veh2" x="2815.11" y="2409.39" angle="23.56" type="car_normal" speed="26.58" pos="82.94" lane="B1.2102_2" slope="0.00"/>
    </timestep>
    <timestep time="12.80">
        <vehicle id="veh0" x="2871.16" y="2533.98" angle="21.94" type="car_normal" speed="33.29" pos="219.56" lane="B1.2102_1" slope="0.00"/>
        <vehicle id="veh2" x="2816.17" y="2411.83" angle="23.56" type="car_normal" speed="26.58" pos="85.60" lane="B1.2102_2" slope="0.00"/>
    </timestep>
    <timestep time="12.90">
        <vehicle id="veh0" x="2872.40" y="2537.07" angle="21.94" type="car_normal" speed="33.26" pos="222.89" lane="B1.2102_1" slope="0.00"/>
        <vehicle id="veh2" x="2817.23" y="2414.26" angle="23.56" type="car_normal" speed="26.58" pos="88.26" lane="B1.2102_2" slope="0.00"/>
    </timestep>
    <timestep time="13.00">
        <vehicle id="veh0" x="2873.65" y="2540.16" angle="21.94" type="car_normal" speed="33.27" pos="226.22" lane="B1.2102_1" slope="0.00"/>
        <vehicle id="veh2" x="2818.29" y="2416.70" angle="23.56" type="car_normal" speed="26.58" pos="90.91" lane="B1.2102_2" slope="0.00"/>
    </timestep>
    <timestep time="13.10">
        <vehicle id="veh0" x="2874.89" y="2543.24" angle="21.94" type="car_normal" speed="33.27" pos="229.54" lane="B1.2102_1" slope="0.00"/>
        <vehicle id="veh2" x="2819.36" y="2419.13" angle="23.56" type="car_normal" speed="26.58" pos="93.57" lane="B1.2102_2" slope="0.00"/>
    </timestep>
    <timestep time="13.20">
        <vehicle id="veh0" x="2876.14" y="2546.33" angle="21.94" type="car_normal" speed="33.30" pos="232.87" lane="B1.2102_1" slope="0.00"/>
        <vehicle id="veh2" x="2820.42" y="2421.57" angle="23.56" type="car_normal" speed="26.58" pos="96.23" lane="B1.2102_2" slope="0.00"/>
    </timestep>
    <timestep time="13.30">
        <vehicle id="veh0" x="2877.38" y="2549.41" angle="21.94" type="car_normal" speed="33.24" pos="236.20" lane="B1.2102_1" slope="0.00"/>
        <vehicle id="veh2" x="2821.48" y="2424.00" angle="23.56" type="car_normal" speed="26.58" pos="98.89" lane="B1.2102_2" slope="0.00"/>
    </timestep>
    <timestep time="13.40">
        <vehicle id="veh0" x="2878.62" y="2552.50" angle="21.94" type="car_normal" speed="33.25" pos="239.52" lane="B1.2102_1" slope="0.00"/>
        <vehicle id="veh2" x="2822.54" y="2426.44" angle="23.56" type="car_normal" speed="26.58" pos="101.55" lane="B1.2102_2" slope="0.00"/>
    </timestep>
    <timestep time="13.50">
        <vehicle id="veh0" x="2879.86" y="2555.59" angle="21.94" type="car_normal" speed="33.33" pos="242.86" lane="B1.2102_1" slope="0.00"/>
        <vehicle id="veh2" x="2823.60" y="2428.88" angle="23.56" type="car_normal" speed="26.58" pos="104.20" lane="B1.2102_2" slope="0.00"/>
    </timestep>
    <timestep time="13.60">
        <vehicle id="veh0" x="2881.11" y="2558.67" angle="21.94" type="car_normal" speed="33.22" pos="246.18" lane="B1.2102_1" slope="0.00"/>
        <vehicle id="veh2" x="2824.67" y="2431.31" angle="23.56" type="car_normal" speed="26.58" pos="106.86" lane="B1.2102_2" slope="0.00"/>
    </timestep>
    <timestep time="13.70">
        <vehicle id="veh0" x="2882.35" y="2561.75" angle="21.94" type="car_normal" speed="33.25" pos="249.50" lane="B1.2102_1" slope="0.00"/>
        <vehicle id="veh2" x="2825.73" y="2433.75" angle="23.56" type="car_normal" speed="26.58" pos="109.52" lane="B1.2102_2" slope="0.00"/>
    </timestep>
    <timestep time="13.80">
        <vehicle id="veh0" x="2883.59" y="2564.84" angle="21.94" type="car_normal" speed="33.26" pos="252.83" lane="B1.2102_1" slope="0.00"/>
        <vehicle id="veh2" x="2826.79" y="2436.18" angle="23.56" type="car_normal" speed="26.58" pos="112.18" lane="B1.2102_2" slope="0.00"/>
    </timestep>
    <timestep time="13.90">
        <vehicle id="veh0" x="2884.83" y="2567.93" angle="21.94" type="car_normal" speed="33.30" pos="256.16" lane="B1.2102_1" slope="0.00"/>
        <vehicle id="veh2" x="2827.85" y="2438.62" angle="23.56" type="car_normal" speed="26.58" pos="114.84" lane="B1.2102_2" slope="0.00"/>
    </timestep>
    <timestep time="14.00">
        <vehicle id="veh0" x="2886.08" y="2571.01" angle="21.94" type="car_normal" speed="33.28" pos="259.49" lane="B1.2102_1" slope="0.00"/>
        <vehicle id="veh2" x="2828.92" y="2441.06" angle="23.56" type="car_normal" speed="26.58" pos="117.49" lane="B1.2102_2" slope="0.00"/>
    </timestep>
    <timestep time="14.10">
        <vehicle id="veh0" x="2887.32" y="2574.10" angle="21.94" type="car_normal" speed="33.30" pos="262.82" lane="B1.2102_1" slope="0.00"/>
        <vehicle id="veh2" x="2829.98" y="2443.49" angle="23.56" type="car_normal" speed="26.58" pos="120.15" lane="B1.2102_2" slope="0.00"/>
    </timestep>
    <timestep time="14.20">
        <vehicle id="veh0" x="2888.56" y="2577.19" angle="21.94" type="car_normal" speed="33.26" pos="266.14" lane="B1.2102_1" slope="0.00"/>
        <vehicle id="veh2" x="2831.04" y="2445.93" angle="23.56" type="car_normal" speed="26.58" pos="122.81" lane="B1.2102_2" slope="0.00"/>
    </timestep>
    <timestep time="14.30">
        <vehicle id="veh0" x="2889.81" y="2580.27" angle="21.94" type="car_normal" speed="33.27" pos="269.47" lane="B1.2102_1" slope="0.00"/>
        <vehicle id="veh2" x="2832.10" y="2448.36" angle="23.56" type="car_normal" speed="26.58" pos="125.47" lane="B1.2102_2" slope="0.00"/>
    </timestep>
    <timestep time="14.40">
        <vehicle id="veh0" x="2891.05" y="2583.36" angle="21.94" type="car_normal" speed="33.26" pos="272.79" lane="B1.2102_1" slope="0.00"/>
        <vehicle id="veh2" x="2833.16" y="2450.80" angle="23.56" type="car_normal" speed="26.58" pos="128.12" lane="B1.2102_2" slope="0.00"/>
    </timestep>
    <timestep time="14.50">
        <vehicle id="veh0" x="2892.29" y="2586.45" angle="21.94" type="car_normal" speed="33.28" pos="276.12" lane="B1.2102_1" slope="0.00"/>
        <vehicle id="veh2" x="2834.23" y="2453.23" angle="23.56" type="car_normal" speed="26.58" pos="130.78" lane="B1.2102_2" slope="0.00"/>
    </timestep>
    <timestep time="14.60">
        <vehicle id="veh0" x="2893.54" y="2589.54" angle="21.94" type="car_normal" speed="33.33" pos="279.45" lane="B1.2102_1" slope="0.00"/>
        <vehicle id="veh2" x="2835.29" y="2455.67" angle="23.56" type="car_normal" speed="26.58" pos="133.44" lane="B1.2102_2" slope="0.00"/>
    </timestep>
    <timestep time="14.70">
        <vehicle id="veh0" x="2894.78" y="2592.62" angle="21.94" type="car_normal" speed="33.26" pos="282.78" lane="B1.2102_1" slope="0.00"/>
        <vehicle id="veh2" x="2836.35" y="2458.11" angle="23.56" type="car_normal" speed="26.58" pos="136.10" lane="B1.2102_2" slope="0.00"/>
    </timestep>
    <timestep time="14.80">
        <vehicle id="veh0" x="2896.02" y="2595.70" angle="21.94" type="car_normal" speed="33.21" pos="286.10" lane="B1.2102_1" slope="0.00"/>
        <vehicle id="veh2" x="2837.41" y="2460.54" angle="23.56" type="car_normal" speed="26.58" pos="138.76" lane="B1.2102_2" slope="0.00"/>
    </timestep>
    <timestep time="14.90">
        <vehicle id="veh0" x="2897.26" y="2598.78" angle="21.94" type="car_normal" speed="33.21" pos="289.42" lane="B1.2102_1" slope="0.00"/>
        <vehicle id="veh2" x="2838.48" y="2462.98" angle="23.56" type="car_normal" speed="26.58" pos="141.41" lane="B1.2102_2" slope="0.00"/>
    </timestep>
    <timestep time="15.00">
        <vehicle id="veh0" x="2898.51" y="2601.87" angle="21.94" type="car_normal" speed="33.28" pos="292.75" lane="B1.2102_1" slope="0.00"/>
        <vehicle id="veh2" x="2839.54" y="2465.41" angle="23.56" type="car_normal" speed="26.58" pos="144.07" lane="B1.2102_2" slope="0.00"/>
        <vehicle id="veh3" x="2786.73" y="2336.32" angle="23.56" type="car_speeding" speed="36.49" pos="4.60" lane="B1.2102_1" slope="0.00"/>
    </timestep>
    <timestep time="15.10">
        <vehicle id="veh0" x="2899.75" y="2604.96" angle="21.94" type="car_normal" speed="33.28" pos="296.08" lane="B1.2102_1" slope="0.00"/>
        <vehicle id="veh2" x="2840.60" y="2467.85" angle="23.56" type="car_normal" speed="26.58" pos="146.73" lane="B1.2102_2" slope="0.00"/>
        <vehicle id="veh3" x="2788.19" y="2339.66" angle="23.56" type="car_speeding" speed="36.43" pos="8.24" lane="B1.2102_1" slope="0.00"/>
    </timestep>
    <timestep time="15.20">
        <vehicle id="veh0" x="2900.99" y="2608.04" angle="21.94" type="car_normal" speed="33.30" pos="299.41" lane="B1.2102_1" slope="0.00"/>
        <vehicle id="veh2" x="2841.66" y="2470.28" angle="23.56" type="car_normal" speed="26.58" pos="149.39" lane="B1.2102_2" slope="0.00"/>
        <vehicle id="veh3" x="2789.64" y="2342.99" angle="23.56" type="car_speeding" speed="36.37" pos="11.88" lane="B1.2102_1" slope="0.00"/>
    </timestep>
    <timestep time="15.30">
        <vehicle id="veh0" x="2902.24" y="2611.13" angle="21.94" type="car_normal" speed="33.30" pos="302.74" lane="B1.2102_1" slope="0.00"/>
        <vehicle id="veh2" x="2842.72" y="2472.72" angle="23.56" type="car_normal" speed="26.58" pos="152.05" lane="B1.2102_2" slope="0.00"/>