<?xml version="1.0" encoding="UTF-8"?>

<!-- generated on 2024-09-27 11:02:12 by Eclipse SUMO GUI Version v1_20_0+1676-0884fd201b0
<sumoConfiguration xmlns:xsi="http://www.w3.org/2001/XMLSchema-instance" xsi:noNamespaceSchemaLocation="http://sumo.dlr.de/xsd/sumoConfiguration.xsd">

    <input>
        <net-file value="highway.net.xml"/>
        <route-files value="highway.rou.xml"/>
        <additional-files value="toll_stops.add.xml,toll_shape.add.xml"/>
    </input>

    <output>
        <fcd-output value="highway_fcd.xml"/>
    </output>

    <time>
        <begin value="0"/>
        <end value="1000"/>
        <step-length value="0.1"/>
    </time>

    <processing>
        <time-to-teleport value="-1"/>
    </processing>

    <report>
        <message-log value="results/sumo-0.log"/>
        <no-step-log value="true"/>
    </report>

    <traci_server>
        <remote-port value="60433"/>
    </traci_server>

    <random_number>
        <seed value="23423"/>
    </random_number>

    <gui_only>
        <quit-on-end value="true"/>
    </gui_only>

</sumoConfiguration>
-->

<fcd-export xmlns:xsi="http://www.w3.org/2001/XMLSchema-instance" xsi:noNamespaceSchemaLocation="http://sumo.dlr.de/xsd/fcd_file.xsd">
    <timestep time="0.00">
        <vehicle id="vehA" x="2786.73" y="2336.32" angle="23.56" type="car" speed="12.00" pos="4.60" lane="B1.2102_1" slope="0.00"/>
    </timestep>
    <timestep time="0.10">
        <vehicle id="vehA" x="2787.21" y="2337.42" angle="23.56" type="car" speed="12.07" pos="5.81" lane="B1.2102_1" slope="0.00"/>
    </timestep>
    <timestep time="0.20">
        <vehicle id="vehA" x="2787.70" y="2338.54" angle="23.56" type="car" speed="12.15" pos="7.02" lane="B1.2102_1" slope="0.00"/>
    </timestep>
    <timestep time="0.30">
        <vehicle id="vehA" x="2788.18" y="2339.65" angle="23.56" type="car" speed="12.21" pos="8.24" lane="B1.2102_1" slope="0.00"/>
    </timestep>
    <timestep time="0.40">
        <vehicle id="vehA" x="2788.67" y="2340.78" angle="23.56" type="car" speed="12.26" pos="9.47" lane="B1.2102_1" slope="0.00"/>
    </timestep>
    <timestep time="0.50">
        <vehicle id="vehA" x="2789.17" y="2341.91" angle="23.56" type="car" speed="12.36" pos="10.70" lane="B1.2102_1" slope="0.00"/>
    </timestep>
    <timestep time="0.60">
        <vehicle id="vehA" x="2789.67" y="2343.05" angle="23.56" type="car" speed="12.46" pos="11.95" lane="B1.2102_1" slope="0.00"/>
    </timestep>
    <timestep time="0.70">
        <vehicle id="vehA" x="2790.17" y="2344.20" angle="23.56" type="car" speed="12.51" pos="13.20" lane="B1.2102_1" slope="0.00"/>
    </timestep>
    <timestep time="0.80">
        <vehicle id="vehA" x="2790.67" y="2345.35" angle="23.56" type="car" speed="12.58" pos="14.46" lane="B1.2102_1" slope="0.00"/>
    </timestep>
    <timestep time="0.90">
        <vehicle id="vehA" x="2791.18" y="2346.51" angle="23.56" type="car" speed="12.66" pos="15.72" lane="B1.2102_1" slope="0.00"/>
    </timestep>
    <timestep time="1.00">
        <vehicle id="vehA" x="2791.68" y="2347.68" angle="23.56" type="car" speed="12.73" pos="17.00" lane="B1.2102_1" slope="0.00"/>
    </timestep>
    <timestep time="1.10">
        <vehicle id="vehA" x="2792.20" y="2348.85" angle="23.56" type="car" speed="12.78" pos="18.28" lane="B1.2102_1" slope="0.00"/>
    </timestep>
    <timestep time="1.20">
        <vehicle id="vehA" x="2792.71" y="2350.03" angle="23.56" type="car" speed="12.87" pos="19.56" lane="B1.2102_1" slope="0.00"/>
    </timestep>
    <timestep time="1.30">
        <vehicle id="vehA" x="2793.23" y="2351.22" angle="23.56" type="car" speed="12.97" pos="20.86" lane="B1.2102_1" slope="0.00"/>
    </timestep>
    <timestep time="1.40">
        <vehicle id="vehA" x="2793.75" y="2352.42" angle="23.56" type="car" speed="13.06" pos="22.17" lane="B1.2102_1" slope="0.00"/>
    </timestep>
    <timestep time="1.50">
        <vehicle id="vehA" x="2794.28" y="2353.62" angle="23.56" type="car" speed="13.15" pos="23.48" lane="B1.2102_1" slope="0.00"/>
    </timestep>
    <timestep time="1.60">
        <vehicle id="vehA" x="2794.81" y="2354.84" angle="23.56" type="car" speed="13.24" pos="24.81" lane="B1.2102_1" slope="0.00"/>
    </timestep>
    <timestep time="1.70">
        <vehicle id="vehA" x="2795.34" y="2356.06" angle="23.56" type="car" speed="13.31" pos="26.14" lane="B1.2102_1" slope="0.00"/>
    </timestep>
    <timestep time="1.80">
        <vehicle id="vehA" x="2795.87" y="2357.28" angle="23.56" type="car" speed="13.38" pos="27.47" lane="B1.2102_1" slope="0.00"/>
    </timestep>
    <timestep time="1.90">
        <vehicle id="vehA" x="2796.41" y="2358.52" angle="23.56" type="car" speed="13.46" pos="28.82" lane="B1.2102_1" slope="0.00"/>
    </timestep>
    <timestep time="2.00">
        <vehicle id="vehA" x="2796.95" y="2359.76" angle="23.56" type="car" speed="13.51" pos="30.17" lane="B1.2102_1" slope="0.00"/>
    </timestep>
    <timestep time="2.10">
        <vehicle id="vehA" x="2797.49" y="2361.00" angle="23.56" type="car" speed="13.58" pos="31.53" lane="B1.2102_1" slope="0.00"/>
    </timestep>
    <timestep time="2.20">
        <vehicle id="vehA" x="2798.04" y="2362.25" angle="23.56" type="car" speed="13.66" pos="32.90" lane="B1.2102_1" slope="0.00"/>
    </timestep>
    <timestep time="2.30">
        <vehicle id="vehA" x="2798.59" y="2363.51" angle="23.56" type="car" speed="13.72" pos="34.27" lane="B1.2102_1" slope="0.00"/>
    </timestep>
    <timestep time="2.40">
        <vehicle id="vehA" x="2799.14" y="2364.77" angle="23.56" type="car" speed="13.79" pos="35.65" lane="B1.2102_1" slope="0.00"/>
    </timestep>
    <timestep time="2.50">
        <vehicle id="vehA" x="2799.69" y="2366.04" angle="23.56" type="car" speed="13.86" pos="37.03" lane="B1.2102_1" slope="0.00"/>
    </timestep>
    <timestep time="2.60">
        <vehicle id="vehA" x="2800.25" y="2367.32" angle="23.56" type="car" speed="13.92" pos="38.42" lane="B1.2102_1" slope="0.00"/>
    </timestep>
    <timestep time="2.70">
        <vehicle id="vehA" x="2800.81" y="2368.60" angle="23.56" type="car" speed="13.99" pos="39.82" lane="B1.2102_1" slope="0.00"/>
    </timestep>
    <timestep time="2.80">
        <vehicle id="vehA" x="2801.37" y="2369.89" angle="23.56" type="car" speed="14.07" pos="41.23" lane="B1.2102_1" slope="0.00"/>
    </timestep>
    <timestep time="2.90">
        <vehicle id="vehA" x="2801.94" y="2371.19" angle="23.56" type="car" speed="14.16" pos="42.65" lane="B1.2102_1" slope="0.00"/>
    </timestep>
    <timestep time="3.00">
        <vehicle id="vehA" x="2802.51" y="2372.49" angle="23.56" type="car" speed="14.24" pos="44.07" lane="B1.2102_1" slope="0.00"/>
    </timestep>
    <timestep time="3.10">
        <vehicle id="vehA" x="2803.08" y="2373.81" angle="23.56" type="car" speed="14.31" pos="45.50" lane="B1.2102_1" slope="0.00"/>
    </timestep>
    <timestep time="3.20">
        <vehicle id="vehA" x="2803.65" y="2375.12" angle="23.56" type="car" speed="14.37" pos="46.94" lane="B1.2102_1" slope="0.00"/>
    </timestep>
    <timestep time="3.30">
        <vehicle id="vehA" x="2804.23" y="2376.45" angle="23.56" type="car" speed="14.43" pos="48.38" lane="B1.2102_1" slope="0.00"/>
    </timestep>
    <timestep time="3.40">
        <vehicle id="vehA" x="2804.81" y="2377.77" angle="23.56" type="car" speed="14.49" pos="49.83" lane="B1.2102_1" slope="0.00"/>
    </timestep>
    <timestep time="3.50">
        <vehicle id="vehA" x="2805.39" y="2379.11" angle="23.56" type="car" speed="14.57" pos="51.29" lane="B1.2102_1" slope="0.00"/>
    </timestep>
    <timestep time="3.60">
        <vehicle id="vehA" x="2805.98" y="2380.45" angle="23.56" type="car" speed="14.65" pos="52.75" lane="B1.2102_1" slope="0.00"/>
    </timestep>
    <timestep time="3.70">
        <vehicle id="vehA" x="2806.56" y="2381.80" angle="23.56" type="car" speed="14.71" pos="54.22" lane="B1.2102_1" slope="0.00"/>
    </timestep>
    <timestep time="3.80">
        <vehicle id="vehA" x="2807.16" y="2383.16" angle="23.56" type="car" speed="14.80" pos="55.70" lane="B1.2102_1" slope="0.00"/>
    </timestep>
    <timestep time="3.90">
        <vehicle id="vehA" x="2807.75" y="2384.52" angle="23.56" type="car" speed="14.89" pos="57.19" lane="B1.2102_1" slope="0.00"/>
    </timestep>
    <timestep time="4.00">
        <vehicle id="vehA" x="2808.35" y="2385.90" angle="23.56" type="car" speed="14.99" pos="58.69" lane="B1.2102_1" slope="0.00"/>
    </timestep>
    <timestep time="4.10">
        <vehicle id="vehA" x="2808.95" y="2387.28" angle="23.56" type="car" speed="15.08" pos="60.20" lane="B1.2102_1" slope="0.00"/>
    </timestep>
    <timestep time="4.20">
        <vehicle id="vehA" x="2809.56" y="2388.67" angle="23.56" type="car" speed="15.14" pos="61.71" lane="B1.2102_1" slope="0.00"/>
    </timestep>
    <timestep time="4.30">
        <vehicle id="vehA" x="2810.17" y="2390.06" angle="23.56" type="car" speed="15.20" pos="63.23" lane="B1.2102_1" slope="0.00"/>
    </timestep>
    <timestep time="4.40">
        <vehicle id="vehA" x="2810.78" y="2391.46" angle="23.56" type="car" speed="15.26" pos="64.76" lane="B1.2102_1" slope="0.00"/>
    </timestep>
    <timestep time="4.50">
        <vehicle id="vehA" x="2811.39" y="2392.86" angle="23.56" type="car" speed="15.35" pos="66.29" lane="B1.2102_1" slope="0.00"/>
    </timestep>
    <timestep time="4.60">
        <vehicle id="vehA" x="2812.01" y="2394.28" angle="23.56" type="car" speed="15.42" pos="67.83" lane="B1.2102_1" slope="0.00"/>
    </timestep>
    <timestep time="4.70">
        <vehicle id="vehA" x="2812.63" y="2395.70" angle="23.56" type="car" speed="15.52" pos="69.39" lane="B1.2102_1" slope="0.00"/>
    </timestep>
    <timestep time="4.80">
        <vehicle id="vehA" x="2813.25" y="2397.13" angle="23.56" type="car" speed="15.61" pos="70.95" lane="B1.2102_1" slope="0.00"/>
    </timestep>
    <timestep time="4.90">
        <vehicle id="vehA" x="2813.88" y="2398.57" angle="23.56" type="car" speed="15.68" pos="72.52" lane="B1.2102_1" slope="0.00"/>
    </timestep>
    <timestep time="5.00">
        <vehicle id="vehA" x="2814.51" y="2400.01" angle="23.56" type="car" speed="15.74" pos="74.09" lane="B1.2102_1" slope="0.00"/>
        <vehicle id="vehB" x="2786.73" y="2336.32" angle="23.56" type="car" speed="24.38" pos="4.60" lane="B1.2102_1" slope="0.00"/>
    </timestep>
    <timestep time="5.10">
        <vehicle id="vehA" x="2815.14" y="2401.46" angle="23.56" type="car" speed="15.83" pos="75.67" lane="B1.2102_1" slope="0.00"/>
        <vehicle id="vehB" x="2787.70" y="2338.55" angle="23.56" type="car" speed="24.37" pos="7.04" lane="B1.2102_1" slope="0.00"/>
    </timestep>
    <timestep time="5.20">
        <vehicle id="vehA" x="2815.77" y="2402.92" angle="23.56" type="car" speed="15.89" pos="77.26" lane="B1.2102_1" slope="0.00"/>
        <vehicle id="vehB" x="2788.67" y="2340.77" angle="23.56" type="car" speed="24.27" pos="9.46" lane="B1.2102_1" slope="0.00"/>
    </timestep>
    <timestep time="5.30">
        <vehicle id="vehA" x="2816.41" y="2404.38" angle="23.56" type="car" speed="15.97" pos="78.86" lane="B1.2102_1" slope="0.00"/>
        <vehicle id="vehB" x="2789.64" y="2342.99" angle="23.56" type="car" speed="24.17" pos="11.88" lane="B1.2102_1" slope="0.00"/>
    </timestep>
    <timestep time="5.40">
        <vehicle id="vehA" x="2817.05" y="2405.85" angle="23.56" type="car" speed="16.04" pos="80.46" lane="B1.2102_1" slope="0.00"/>
        <vehicle id="vehB" x="2790.60" y="2345.20" angle="23.56" type="car" speed="24.11" pos="14.29" lane="B1.2102_1" slope="0.00"/>
    </timestep>
    <timestep time="5.50">
        <vehicle id="vehA" x="2817.70" y="2407.33" angle="23.56" type="car" speed="16.13" pos="82.07" lane="B1.2102_1" slope="0.00"/>
        <vehicle id="vehB" x="2791.56" y="2347.40" angle="23.56" type="car" speed="24.02" pos="16.69" lane="B1.2102_1" slope="0.00"/>
    </timestep>
    <timestep time="5.60">
        <vehicle id="vehA" x="2818.35" y="2408.82" angle="23.56" type="car" speed="16.22" pos="83.70" lane="B1.2102_1" slope="0.00"/>
        <vehicle id="vehB" x="2792.52" y="2349.59" angle="23.56" type="car" speed="23.91" pos="19.08" lane="B1.2102_1" slope="0.00"/>
    </timestep>
    <timestep time="5.70">
        <vehicle id="vehA" x="2819.00" y="2410.31" angle="23.56" type="car" speed="16.30" pos="85.33" lane="B1.2102_1" slope="0.00"/>
        <vehicle id="vehB" x="2793.47" y="2351.78" angle="23.56" type="car" speed="23.87" pos="21.47" lane="B1.2102_1" slope="0.00"/>
    </timestep>
    <timestep time="5.80">
        <vehicle id="vehA" x="2819.65" y="2411.81" angle="23.56" type="car" speed="16.36" pos="86.96" lane="B1.2102_1" slope="0.00"/>
        <vehicle id="vehB" x="2794.42" y="2353.96" angle="23.56" type="car" speed="23.78" pos="23.85" lane="B1.2102_1" slope="0.00"/>
    </timestep>
    <timestep time="5.90">
        <vehicle id="vehA" x="2820.31" y="2413.32" angle="23.56" type="car" speed="16.42" pos="88.61" lane="B1.2102_1" slope="0.00"/>
        <vehicle id="vehB" x="2795.37" y="2356.13" angle="23.56" type="car" speed="23.68" pos="26.22" lane="B1.2102_1" slope="0.00"/>
    </timestep>
    <timestep time="6.00">
        <vehicle id="vehA" x="2820.97" y="2414.83" angle="23.56" type="car" speed="16.48" pos="90.25" lane="B1.2102_1" slope="0.00"/>
        <vehicle id="vehB" x="2796.31" y="2358.29" angle="23.56" type="car" speed="23.60" pos="28.58" lane="B1.2102_1" slope="0.00"/>
        <vehicle id="vehC" x="2786.73" y="2336.32" angle="23.56" type="car" speed="22.51" pos="4.60" lane="B1.2102_1" slope="0.00"/>
    </timestep>
    <timestep time="6.10">
        <vehicle id="vehA" x="2821.63" y="2416.34" angle="23.56" type="car" speed="16.55" pos="91.91" lane="B1.2102_1" slope="0.00"/>
        <vehicle id="vehB" x="2797.25" y="2360.45" angle="23.56" type="car" speed="23.51" pos="30.93" lane="B1.2102_1" slope="0.00"/>
        <vehicle id="vehC" x="2787.63" y="2338.38" angle="23.56" type="car" speed="22.50" pos="6.85" lane="B1.2102_1" slope="0.00"/>
    </timestep>
    <timestep time="6.20">
        <vehicle id="vehA" x="2822.29" y="2417.87" angle="23.56" type="car" speed="16.64" pos="93.57" lane="B1.2102_1" slope="0.00"/>
        <vehicle id="vehB" x="2798.19" y="2362.60" angle="23.56" type="car" speed="23.47" pos="33.28" lane="B1.2102_1" slope="0.00"/>
        <vehicle id="vehC" x="2788.53" y="2340.44" angle="23.56" type="car" speed="22.44" pos="9.09" lane="B1.2102_1" slope="0.00"/>
    </timestep>
    <timestep time="6.30">
        <vehicle id="vehA" x="2822.96" y="2419.40" angle="23.56" type="car" speed="16.72" pos="95.24" lane="B1.2102_1" slope="0.00"/>
        <vehicle id="vehB" x="2799.13" y="2364.75" angle="23.56" type="car" speed="23.41" pos="35.62" lane="B1.2102_1" slope="0.00"/>
        <vehicle id="vehC" x="2789.42" y="2342.49" angle="23.56" type="car" speed="22.41" pos="11.33" lane="B1.2102_1" slope="0.00"/>
    </timestep>
    <timestep time="6.40">
        <vehicle id="vehA" x="2823.63" y="2420.94" angle="23.56" type="car" speed="16.80" pos="96.92" lane="B1.2102_1" slope="0.00"/>
        <vehicle id="vehB" x="2800.06" y="2366.89" angle="23.56" type="car" speed="23.34" pos="37.95" lane="B1.2102_1" slope="0.00"/>
        <vehicle id="vehC" x="2790.32" y="2344.54" angle="23.56" type="car" speed="22.38" pos="13.57" lane="B1.2102_1" slope="0.00"/>
    </timestep>
    <timestep time="6.50">
        <vehicle id="vehA" x="2824.31" y="2422.49" angle="23.56" type="car" speed="16.87" pos="98.61" lane="B1.2102_1" slope="0.00"/>
        <vehicle id="vehB" x="2800.99" y="2369.02" angle="23.56" type="car" speed="23.28" pos="40.28" lane="B1.2102_1" slope="0.00"/>
        <vehicle id="vehC" x="2791.21" y="2346.59" angle="23.56" type="car" speed="22.35" pos="15.81" lane="B1.2102_1" slope="0.00"/>
    </timestep>
    <timestep time="6.60">
        <vehicle id="vehA" x="2824.99" y="2424.04" angle="23.56" type="car" speed="16.92" pos="100.30" lane="B1.2102_1" slope="0.00"/>
        <vehicle id="vehB" x="2801.92" y="2371.15" angle="23.56" type="car" speed="23.21" pos="42.60" lane="B1.2102_1" slope="0.00"/>
        <vehicle id="vehC" x="2792.10" y="2348.63" angle="23.56" type="car" speed="22.28" pos="18.04" lane="B1.2102_1" slope="0.00"/>
    </timestep>
    <timestep time="6.70">
        <vehicle id="vehA" x="2825.67" y="2425.60" angle="23.56" type="car" speed="17.01" pos="102.00" lane="B1.2102_1" slope="0.00"/>
        <vehicle id="vehB" x="2802.84" y="2373.27" angle="23.56" type="car" speed="23.15" pos="44.92" lane="B1.2102_1" slope="0.00"/>
        <vehicle id="vehC" x="2792.99" y="2350.67" angle="23.56" type="car" speed="22.26" pos="20.26" lane="B1.2102_1" slope="0.00"/>
    </timestep>
    <timestep time="6.80">
        <vehicle id="vehA" x="2826.35" y="2427.17" angle="23.56" type="car" speed="17.08" pos="103.71" lane="B1.2102_1" slope="0.00"/>
        <vehicle id="vehB" x="2803.77" y="2375.39" angle="23.56" type="car" speed="23.10" pos="47.23" lane="B1.2102_1" slope="0.00"/>
        <vehicle id="vehC" x="2793.88" y="2352.71" angle="23.56" type="car" speed="22.21" pos="22.48" lane="B1.2102_1" slope="0.00"/>
    </timestep>
    <timestep time="6.90">
        <vehicle id="vehA" x="2827.03" y="2428.74" angle="23.56" type="car" speed="17.16" pos="105.43" lane="B1.2102_1" slope="0.00"/>
        <vehicle id="vehB" x="2804.69" y="2377.50" angle="23.56" type="car" speed="23.07" pos="49.53" lane="B1.2102_1" slope="0.00"/>
        <vehicle id="vehC" x="2794.76" y="2354.74" angle="23.56" type="car" speed="22.18" pos="24.70" lane="B1.2102_1" slope="0.00"/>
    </timestep>
    <timestep time="7.00">
        <vehicle id="vehA" x="2827.72" y="2430.32" angle="23.56" type="car" speed="17.21" pos="107.15" lane="B1.2102_1" slope="0.00"/>
        <vehicle id="vehB" x="2805.61" y="2379.61" angle="23.56" type="car" speed="22.97" pos="51.83" lane="B1.2102_1" slope="0.00"/>
        <vehicle id="vehC" x="2795.65" y="2356.77" angle="23.56" type="car" speed="22.17" pos="26.92" lane="B1.2102_1" slope="0.00"/>
        <vehicle id="vehD" x="2786.73" y="2336.32" angle="23.56" type="car" speed="20.98" pos="4.60" lane="B1.2102_1" slope="0.00"/>
    </timestep>
    <timestep time="7.10">
        <vehicle id="vehA" x="2828.41" y="2431.90" angle="23.56" type="car" speed="17.30" pos="108.88" lane="B1.2102_1" slope="0.00"/>
        <vehicle id="vehB" x="2806.53" y="2381.71" angle="23.56" type="car" speed="22.94" pos="54.12" lane="B1.2102_1" slope="0.00"/>
        <vehicle id="vehC" x="2796.53" y="2358.80" angle="23.56" type="car" speed="22.11" pos="29.13" lane="B1.2102_1" slope="0.00"/>
        <vehicle id="vehD" x="2787.57" y="2338.24" angle="23.56" type="car" speed="20.94" pos="6.69" lane="B1.2102_1" slope="0.00"/>
    </timestep>
    <timestep time="7.20">
        <vehicle id="vehA" x="2829.11" y="2433.49" angle="23.56" type="car" speed="17.38" pos="110.62" lane="B1.2102_1" slope="0.00"/>
        <vehicle id="vehB" x="2807.44" y="2383.81" angle="23.56" type="car" speed="22.90" pos="56.41" lane="B1.2102_1" slope="0.00"/>
        <vehicle id="vehC" x="2797.42" y="2360.83" angle="23.56" type="car" speed="22.09" pos="31.34" lane="B1.2102_1" slope="0.00"/>
        <vehicle id="vehD" x="2788.40" y="2340.15" angle="23.56" type="car" speed="20.91" pos="8.78" lane="B1.2102_1" slope="0.00"/>
    </timestep>
    <timestep time="7.30">
        <vehicle id="vehA" x="2829.81" y="2435.09" angle="23.56" type="car" speed="17.45" pos="112.36" lane="B1.2102_1" slope="0.00"/>
        <vehicle id="vehB" x="2808.35" y="2385.90" angle="23.56" type="car" speed="22.83" pos="58.70" lane="B1.2102_1" slope="0.00"/>
        <vehicle id="vehC" x="2798.30" y="2362.85" angle="23.56" type="car" speed="22.08" pos="33.55" lane="B1.2102_1" slope="0.00"/>
        <vehicle id="vehD" x="2789.24" y="2342.07" angle="23.56" type="car" speed="20.91" pos="10.88" lane="B1.2102_1" slope="0.00"/>
    </timestep>
    <timestep time="7.40">
        <vehicle id="vehA" x="2830.51" y="2436.70" angle="23.56" type="car" speed="17.54" pos="114.12" lane="B1.2102_1" slope="0.00"/>
        <vehicle id="vehB" x="2809.27" y="2387.99" angle="23.56" type="car" speed="22.81" pos="60.98" lane="B1.2102_1" slope="0.00"/>
        <vehicle id="vehC" x="2799.18" y="2364.87" angle="23.56" type="car" speed="22.00" pos="35.75" lane="B1.2102_1" slope="0.00"/>
        <vehicle id="vehD" x="2790.08" y="2343.99" angle="23.56" type="car" speed="20.96" pos="12.97" lane="B1.2102_1" slope="0.00"/>
    </timestep>
    <timestep time="7.50">
        <vehicle id="vehA" x="2831.21" y="2438.32" angle="23.56" type="car" speed="17.61" pos="115.88" lane="B1.2102_1" slope="0.00"/>
        <vehicle id="vehB" x="2810.18" y="2390.08" angle="23.56" type="car" speed="22.79" pos="63.26" lane="B1.2102_1" slope="0.00"/>
        <vehicle id="vehC" x="2800.06" y="2366.89" angle="23.56" type="car" speed="22.03" pos="37.95" lane="B1.2102_1" slope="0.00"/>
        <vehicle id="vehD" x="2790.91" y="2345.90" angle="23.56" type="car" speed="20.88" pos="15.06" lane="B1.2102_1" slope="0.00"/>
    </timestep>
    <timestep time="7.60">
        <vehicle id="vehA" x="2831.92" y="2439.94" angle="23.56" type="car" speed="17.70" pos="117.65" lane="B1.2102_1" slope="0.00"/>
        <vehicle id="vehB" x="2811.09" y="2392.17" angle="23.56" type="car" speed="22.75" pos="65.53" lane="B1.2102_1" slope="0.00"/>
        <vehicle id="vehC" x="2800.94" y="2368.90" angle="23.56" type="car" speed="22.02" pos="40.15" lane="B1.2102_1" slope="0.00"/>
        <vehicle id="vehD" x="2791.75" y="2347.82" angle="23.56" type="car" speed="20.92" pos="17.15" lane="B1.2102_1" slope="0.00"/>
    </timestep>
    <timestep time="7.70">
        <vehicle id="vehA" x="2832.63" y="2441.57" angle="23.56" type="car" speed="17.77" pos="119.42" lane="B1.2102_1" slope="0.00"/>
        <vehicle id="vehB" x="2811.99" y="2394.25" angle="23.56" type="car" speed="22.70" pos="67.80" lane="B1.2102_1" slope="0.00"/>
        <vehicle id="vehC" x="2801.82" y="2370.92" angle="23.56" type="car" speed="21.97" pos="42.35" lane="B1.2102_1" slope="0.00"/>
        <vehicle id="vehD" x="2792.58" y="2349.74" angle="23.56" type="car" speed="20.96" pos="19.25" lane="B1.2102_1" slope="0.00"/>
    </timestep>
    <timestep time="7.80">
        <vehicle id="vehA" x="2833.34" y="2443.20" angle="23.56" type="car" speed="17.84" pos="121.21" lane="B1.2102_1" slope="0.00"/>
        <vehicle id="vehB" x="2812.90" y="2396.33" angle="23.56" type="car" speed="22.65" pos="70.07" lane="B1.2102_1" slope="0.00"/>
        <vehicle id="vehC" x="2802.70" y="2372.93" angle="23.56" type="car" speed="21.98" pos="44.55" lane="B1.2102_1" slope="0.00"/>
        <vehicle id="vehD" x="2793.42" y="2351.66" angle="23.56" type="car" speed="20.92" pos="21.34" lane="B1.2102_1" slope="0.00"/>
    </timestep>
    <timestep time="7.90">
        <vehicle id="vehA" x="2834.06" y="2444.84" angle="23.56" type="car" speed="17.91" pos="123.00" lane="B1.2102_1" slope="0.00"/>
        <vehicle id="vehB" x="2813.80" y="2398.40" angle="23.56" type="car" speed="22.65" pos="72.33" lane="B1.2102_1" slope="0.00"/>
        <vehicle id="vehC" x="2803.57" y="2374.94" angle="23.56" type="car" speed="21.95" pos="46.74" lane="B1.2102_1" slope="0.00"/>
        <vehicle id="vehD" x="2794.26" y="2353.58" angle="23.56" type="car" speed="20.92" pos="23.43" lane="B1.2102_1" slope="0.00"/>
    </timestep>
    <timestep time="8.00">
        <vehicle id="vehA" x="2834.78" y="2446.49" angle="23.56" type="car" speed="18.00" pos="124.80" lane="B1.2102_1" slope="0.00"/>
        <vehicle id="vehB" x="2814.71" y="2400.47" angle="23.56" type="car" speed="22.62" pos="74.59" lane="B1.2102_1" slope="0.00"/>
        <vehicle id="vehC" x="2804.45" y="2376.96" angle="23.56" type="car" speed="21.94" pos="48.94" lane="B1.2102_1" slope="0.00"/>
        <vehicle id="vehD" x="2795.09" y="2355.49" angle="23.56" type="car" speed="20.91" pos="25.52" lane="B1.2102_1" slope="0.00"/>
    </timestep>
    <timestep time="8.10">
        <vehicle id="vehA" x="2835.50" y="2448.15" angle="23.56" type="car" speed="18.08" pos="126.61" lane="B1.2102_1" slope="0.00"/>
        <vehicle id="vehB" x="2815.61" y="2402.55" angle="23.56" type="car" speed="22.60" pos="76.85" lane="B1.2102_1" slope="0.00"/>
        <vehicle id="vehC" x="2805.33" y="2378.96" angle="23.56" type="car" speed="21.91" pos="51.13" lane="B1.2102_1" slope="0.00"/>
        <vehicle id="vehD" x="2795.93" y="2357.42" angle="23.56" type="car" speed="20.96" pos="27.62" lane="B1.2102_1" slope="0.00"/>
    </timestep>
    <timestep time="8.20">
        <vehicle id="vehA" x="2836.23" y="2449.82" angle="23.56" type="car" speed="18.18" pos="128.43" lane="B1.2102_1" slope="0.00"/>
        <vehicle id="vehB" x="2816.51" y="2404.61" angle="23.56" type="car" speed="22.57" pos="79.11" lane="B1.2102_1" slope="0.00"/>
        <vehicle id="vehC" x="2806.20" y="2380.97" angle="23.56" type="car" speed="21.90" pos="53.32" lane="B1.2102_1" slope="0.00"/>
        <vehicle id="vehD" x="2796.77" y="2359.34" angle="23.56" type="car" speed="20.95" pos="29.71" lane="B1.2102_1" slope="0.00"/>
    </timestep>
    <timestep time="8.30">
        <vehicle id="vehA" x="2836.96" y="2451.49" angle="23.56" type="car" speed="18.26" pos="130.25" lane="B1.2102_1" slope="0.00"/>
        <vehicle id="vehB" x="2817.42" y="2406.68" angle="23.56" type="car" speed="22.55" pos="81.37" lane="B1.2102_1" slope="0.00"/>
        <vehicle id="vehC" x="2807.08" y="2382.98" angle="23.56" type="car" speed="21.92" pos="55.51" lane="B1.2102_1" slope="0.00"/>
        <vehicle id="vehD" x="2797.60" y="2361.26" angle="23.56" type="car" speed="20.95" pos="31.81" lane="B1.2102_1" slope="0.00"/>
    </timestep>
    <timestep time="8.40">
        <vehicle id="vehA" x="2837.69" y="2453.17" angle="23.56" type="car" speed="18.33" pos="132.09" lane="B1.2102_1" slope="0.00"/>
        <vehicle id="vehB" x="2818.32" y="2408.75" angle="23.56" type="car" speed="22.55" pos="83.62" lane="B1.2102_1" slope="0.00"/>
        <vehicle id="vehC" x="2807.96" y="2384.99" angle="23.56" type="car" speed="21.91" pos="57.70" lane="B1.2102_1" slope="0.00"/>
        <vehicle id="vehD" x="2798.44" y="2363.18" angle="23.56" type="car" speed="20.98" pos="33.91" lane="B1.2102_1" slope="0.00"/>
    </timestep>
    <timestep time="8.50">
        <vehicle id="vehA" x="2838.42" y="2454.86" angle="23.56" type="car" speed="18.39" pos="133.92" lane="B1.2102_1" slope="0.00"/>
        <vehicle id="vehB" x="2819.22" y="2410.81" angle="23.56" type="car" speed="22.50" pos="85.87" lane="B1.2102_1" slope="0.00"/>
        <vehicle id="vehC" x="2808.83" y="2387.00" angle="23.56" type="car" speed="21.90" pos="59.89" lane="B1.2102_1" slope="0.00"/>
        <vehicle id="vehD" x="2799.28" y="2365.10" angle="23.56" type="car" speed="20.98" pos="36.00" lane="B1.2102_1" slope="0.00"/>
    </timestep>
    <timestep time="8.60">
        <vehicle id="vehA" x="2839.16" y="2456.55" angle="23.56" type="car" speed="18.48" pos="135.77" lane="B1.2102_1" slope="0.00"/>
        <vehicle id="vehB" x="2820.11" y="2412.87" angle="23.56" type="car" speed="22.46" pos="88.12" lane="B1.2102_1" slope="0.00"/>
        <vehicle id="vehC" x="2809.70" y="2389.00" angle="23.56" type="car" speed="21.85" pos="62.08" lane="B1.2102_1" slope="0.00"/>
        <vehicle id="vehD" x="2800.12" y="2367.03" angle="23.56" type="car" speed="20.98" pos="38.10" lane="B1.2102_1" slope="0.00"/>
    </timestep>
    <timestep time="8.70">
        <vehicle id="vehA" x="2839.90" y="2458.25" angle="23.56" type="car" speed="18.54" pos="137.63" lane="B1.2102_1" slope="0.00"/>
        <vehicle id="vehB" x="2821.01" y="2414.93" angle="23.56" type="car" speed="22.49" pos="90.37" lane="B1.2102_1" slope="0.00"/>
        <vehicle id="vehC" x="2810.58" y="2391.00" angle="23.56" type="car" speed="21.87" pos="64.26" lane="B1.2102_1" slope="0.00"/>
        <vehicle id="vehD" x="2800.96" y="2368.95" angle="23.56" type="car" speed="20.99" pos="40.20" lane="B1.2102_1" slope="0.00"/>
    </timestep>
    <timestep time="8.80">
        <vehicle id="vehA" x="2840.65" y="2459.96" angle="23.56" type="car" speed="18.59" pos="139.49" lane="B1.2102_1" slope="0.00"/>
        <vehicle id="vehB" x="2821.91" y="2416.99" angle="23.56" type="car" speed="22.46" pos="92.61" lane="B1.2102_1" slope="0.00"/>
        <vehicle id="vehC" x="2811.45" y="2393.01" angle="23.56" type="car" speed="21.91" pos="66.45" lane="B1.2102_1" slope="0.00"/>
        <vehicle id="vehD" x="2801.80" y="2370.87" angle="23.56" type="car" speed="21.00" pos="42.30" lane="B1.2102_1" slope="0.00"/>
    </timestep>
    <timestep time="8.90">
        <vehicle id="vehA" x="2841.39" y="2461.66" angle="23.56" type="car" speed="18.65" pos="141.35" lane="B1.2102_1" slope="0.00"/>
        <vehicle id="vehB" x="2822.81" y="2419.05" angle="23.56" type="car" speed="22.42" pos="94.85" lane="B1.2102_1" slope="0.00"/>
        <vehicle id="vehC" x="2812.33" y="2395.02" angle="23.56" type="car" speed="21.89" pos="68.64" lane="B1.2102_1" slope="0.00"/>
        <vehicle id="vehD" x="2802.64" y="2372.80" angle="23.56" type="car" speed="21.04" pos="44.41" lane="B1.2102_1" slope="0.00"/>
    </timestep>
    <timestep time="9.00">
        <vehicle id="vehA" x="2842.14" y="2463.38" angle="23.56" type="car" speed="18.72" pos="143.22" lane="B1.2102_1" slope="0.00"/>
        <vehicle id="vehB" x="2823.70" y="2421.10" angle="23.56" type="car" speed="22.39" pos="97.09" lane="B1.2102_1" slope="0.00"/>
        <vehicle id="vehC" x="2813.20" y="2397.02" angle="23.56" type="car" speed="21.83" pos="70.83" lane="B1.2102_1" slope="0.00"/>
        <vehicle id="vehD" x="2803.48" y="2374.73" angle="23.56" type="car" speed="21.06" pos="46.51" lane="B1.2102_1" slope="0.00"/>
    </timestep>
    <timestep time="9.10">
        <vehicle id="vehA" x="2842.89" y="2465.10" angle="23.56" type="car" speed="18.78" pos="145.10" lane="B1.2102_1" slope="0.00"/>