<?xml version="1.0" encoding="UTF-8"?>

<!-- generated on 2024-09-11 00:44:13 by Eclipse SUMO GUI Version v1_20_0+1676-0884fd201b0
<sumoConfiguration xmlns:xsi="http://www.w3.org/2001/XMLSchema-instance" xsi:noNamespaceSchemaLocation="http://sumo.dlr.de/xsd/sumoConfiguration.xsd">

    <input>
        <net-file value="highway.net.xml"/>
        <route-files value="highway.rou.xml"/>
    </input>

    <output>
        <fcd-output value="highway_fcd.xml"/>
    </output>

    <time>
        <begin value="0"/>
        <end value="1000"/>
        <step-length value="0.2"/>
    </time>

    <processing>
        <time-to-teleport value="-1"/>
    </processing>

</sumoConfiguration>
-->

<fcd-export xmlns:xsi="http://www.w3.org/2001/XMLSchema-instance" xsi:noNamespaceSchemaLocation="http://sumo.dlr.de/xsd/fcd_file.xsd">
</fcd-export>
