<?xml version="1.0" encoding="UTF-8"?>

<!-- generated on 2024-09-13 16:51:33 by Eclipse SUMO GUI Version v1_20_0+1676-0884fd201b0
<sumoConfiguration xmlns:xsi="http://www.w3.org/2001/XMLSchema-instance" xsi:noNamespaceSchemaLocation="http://sumo.dlr.de/xsd/sumoConfiguration.xsd">

    <input>
        <net-file value="highway.net.xml"/>
        <route-files value="highway.rou.xml"/>
        <additional-files value="toll_stops.add.xml"/>
    </input>

    <output>
        <fcd-output value="highway_fcd.xml"/>
    </output>

    <time>
        <begin value="0"/>
        <end value="1000"/>
        <step-length value="0.1"/>
    </time>

    <processing>
        <time-to-teleport value="-1"/>
    </processing>

    <report>
        <message-log value="results/sumo-0.log"/>
        <no-step-log value="true"/>
    </report>

    <traci_server>
        <remote-port value="54485"/>
    </traci_server>

    <random_number>
        <seed value="23423"/>
    </random_number>

    <gui_only>
        <quit-on-end value="true"/>
    </gui_only>

</sumoConfiguration>
-->

<fcd-export xmlns:xsi="http://www.w3.org/2001/XMLSchema-instance" xsi:noNamespaceSchemaLocation="http://sumo.dlr.de/xsd/fcd_file.xsd">
    <timestep time="0.00">
        <vehicle id="vehA" x="2786.73" y="2336.32" angle="23.56" type="car" speed="5.00" pos="4.60" lane="B1.2102_1" slope="0.00"/>
    </timestep>
    <timestep time="0.10">
        <vehicle id="vehA" x="2786.94" y="2336.79" angle="23.56" type="car" speed="5.17" pos="5.12" lane="B1.2102_1" slope="0.00"/>
    </timestep>
    <timestep time="0.20">
        <vehicle id="vehA" x="2787.15" y="2337.28" angle="23.56" type="car" speed="5.39" pos="5.66" lane="B1.2102_1" slope="0.00"/>
    </timestep>
    <timestep time="0.30">
        <vehicle id="vehA" x="2787.37" y="2337.79" angle="23.56" type="car" speed="5.54" pos="6.21" lane="B1.2102_1" slope="0.00"/>
    </timestep>
    <timestep time="0.40">
        <vehicle id="vehA" x="2787.60" y="2338.31" angle="23.56" type="car" speed="5.68" pos="6.78" lane="B1.2102_1" slope="0.00"/>
    </timestep>
    <timestep time="0.50">
        <vehicle id="vehA" x="2787.84" y="2338.86" angle="23.56" type="car" speed="5.93" pos="7.37" lane="B1.2102_1" slope="0.00"/>
    </timestep>
    <timestep time="0.60">
        <vehicle id="vehA" x="2788.08" y="2339.42" angle="23.56" type="car" speed="6.19" pos="7.99" lane="B1.2102_1" slope="0.00"/>
    </timestep>
    <timestep time="0.70">
        <vehicle id="vehA" x="2788.34" y="2340.00" angle="23.56" type="car" speed="6.33" pos="8.62" lane="B1.2102_1" slope="0.00"/>
    </timestep>
    <timestep time="0.80">
        <vehicle id="vehA" x="2788.60" y="2340.60" angle="23.56" type="car" speed="6.50" pos="9.27" lane="B1.2102_1" slope="0.00"/>
    </timestep>
    <timestep time="0.90">
        <vehicle id="vehA" x="2788.87" y="2341.21" angle="23.56" type="car" speed="6.72" pos="9.94" lane="B1.2102_1" slope="0.00"/>
    </timestep>
    <timestep time="1.00">
        <vehicle id="vehA" x="2789.14" y="2341.85" angle="23.56" type="car" speed="6.89" pos="10.63" lane="B1.2102_1" slope="0.00"/>
    </timestep>
    <timestep time="1.10">
        <vehicle id="vehA" x="2789.42" y="2342.49" angle="23.56" type="car" speed="7.04" pos="11.34" lane="B1.2102_1" slope="0.00"/>
    </timestep>
    <timestep time="1.20">
        <vehicle id="vehA" x="2789.71" y="2343.16" angle="23.56" type="car" speed="7.27" pos="12.06" lane="B1.2102_1" slope="0.00"/>
    </timestep>
    <timestep time="1.30">
        <vehicle id="vehA" x="2790.01" y="2343.85" angle="23.56" type="car" speed="7.51" pos="12.81" lane="B1.2102_1" slope="0.00"/>
    </timestep>
    <timestep time="1.40">
        <vehicle id="vehA" x="2790.32" y="2344.56" angle="23.56" type="car" speed="7.76" pos="13.59" lane="B1.2102_1" slope="0.00"/>
    </timestep>
    <timestep time="1.50">
        <vehicle id="vehA" x="2790.64" y="2345.29" angle="23.56" type="car" speed="8.00" pos="14.39" lane="B1.2102_1" slope="0.00"/>
    </timestep>
    <timestep time="1.60">
        <vehicle id="vehA" x="2790.97" y="2346.05" angle="23.56" type="car" speed="8.24" pos="15.21" lane="B1.2102_1" slope="0.00"/>
    </timestep>
    <timestep time="1.70">
        <vehicle id="vehA" x="2791.31" y="2346.82" angle="23.56" type="car" speed="8.41" pos="16.05" lane="B1.2102_1" slope="0.00"/>
    </timestep>
    <timestep time="1.80">
        <vehicle id="vehA" x="2791.65" y="2347.60" angle="23.56" type="car" speed="8.59" pos="16.91" lane="B1.2102_1" slope="0.00"/>
    </timestep>
    <timestep time="1.90">
        <vehicle id="vehA" x="2792.00" y="2348.41" angle="23.56" type="car" speed="8.80" pos="17.79" lane="B1.2102_1" slope="0.00"/>
    </timestep>
    <timestep time="2.00">
        <vehicle id="vehA" x="2792.36" y="2349.23" angle="23.56" type="car" speed="8.93" pos="18.69" lane="B1.2102_1" slope="0.00"/>
    </timestep>
    <timestep time="2.10">
        <vehicle id="vehA" x="2792.72" y="2350.06" angle="23.56" type="car" speed="9.10" pos="19.60" lane="B1.2102_1" slope="0.00"/>
    </timestep>
    <timestep time="2.20">
        <vehicle id="vehA" x="2793.10" y="2350.92" angle="23.56" type="car" speed="9.32" pos="20.53" lane="B1.2102_1" slope="0.00"/>
    </timestep>
    <timestep time="2.30">
        <vehicle id="vehA" x="2793.47" y="2351.78" angle="23.56" type="car" speed="9.47" pos="21.47" lane="B1.2102_1" slope="0.00"/>
    </timestep>
    <timestep time="2.40">
        <vehicle id="vehA" x="2793.86" y="2352.67" angle="23.56" type="car" speed="9.64" pos="22.44" lane="B1.2102_1" slope="0.00"/>
    </timestep>
    <timestep time="2.50">
        <vehicle id="vehA" x="2794.25" y="2353.57" angle="23.56" type="car" speed="9.84" pos="23.42" lane="B1.2102_1" slope="0.00"/>
    </timestep>
    <timestep time="2.60">
        <vehicle id="vehA" x="2794.65" y="2354.49" angle="23.56" type="car" speed="9.99" pos="24.42" lane="B1.2102_1" slope="0.00"/>
    </timestep>
    <timestep time="2.70">
        <vehicle id="vehA" x="2795.06" y="2355.42" angle="23.56" type="car" speed="10.18" pos="25.44" lane="B1.2102_1" slope="0.00"/>
    </timestep>
    <timestep time="2.80">
        <vehicle id="vehA" x="2795.47" y="2356.37" angle="23.56" type="car" speed="10.37" pos="26.48" lane="B1.2102_1" slope="0.00"/>
    </timestep>
    <timestep time="2.90">
        <vehicle id="vehA" x="2795.90" y="2357.34" angle="23.56" type="car" speed="10.62" pos="27.54" lane="B1.2102_1" slope="0.00"/>
    </timestep>
    <timestep time="3.00">
        <vehicle id="vehA" x="2796.33" y="2358.33" angle="23.56" type="car" speed="10.82" pos="28.62" lane="B1.2102_1" slope="0.00"/>
    </timestep>
    <timestep time="3.10">
        <vehicle id="vehA" x="2796.77" y="2359.34" angle="23.56" type="car" speed="11.00" pos="29.72" lane="B1.2102_1" slope="0.00"/>
    </timestep>
    <timestep time="3.20">
        <vehicle id="vehA" x="2797.22" y="2360.37" angle="23.56" type="car" speed="11.16" pos="30.84" lane="B1.2102_1" slope="0.00"/>
    </timestep>
    <timestep time="3.30">
        <vehicle id="vehA" x="2797.67" y="2361.40" angle="23.56" type="car" speed="11.32" pos="31.97" lane="B1.2102_1" slope="0.00"/>
    </timestep>
    <timestep time="3.40">
        <vehicle id="vehA" x="2798.13" y="2362.45" angle="23.56" type="car" speed="11.47" pos="33.12" lane="B1.2102_1" slope="0.00"/>
    </timestep>
    <timestep time="3.50">
        <vehicle id="vehA" x="2798.59" y="2363.52" angle="23.56" type="car" speed="11.68" pos="34.28" lane="B1.2102_1" slope="0.00"/>
    </timestep>
    <timestep time="3.60">
        <vehicle id="vehA" x="2799.07" y="2364.61" angle="23.56" type="car" speed="11.89" pos="35.47" lane="B1.2102_1" slope="0.00"/>
    </timestep>
    <timestep time="3.70">
        <vehicle id="vehA" x="2799.55" y="2365.72" angle="23.56" type="car" speed="12.04" pos="36.68" lane="B1.2102_1" slope="0.00"/>
    </timestep>
    <timestep time="3.80">
        <vehicle id="vehA" x="2800.04" y="2366.84" angle="23.56" type="car" speed="12.29" pos="37.90" lane="B1.2102_1" slope="0.00"/>
    </timestep>
    <timestep time="3.90">
        <vehicle id="vehA" x="2800.54" y="2367.99" angle="23.56" type="car" speed="12.51" pos="39.16" lane="B1.2102_1" slope="0.00"/>
    </timestep>
    <timestep time="4.00">
        <vehicle id="vehA" x="2801.05" y="2369.16" angle="23.56" type="car" speed="12.76" pos="40.43" lane="B1.2102_1" slope="0.00"/>
    </timestep>
    <timestep time="4.10">
        <vehicle id="vehA" x="2801.57" y="2370.35" angle="23.56" type="car" speed="13.00" pos="41.73" lane="B1.2102_1" slope="0.00"/>
    </timestep>
    <timestep time="4.20">
        <vehicle id="vehA" x="2802.10" y="2371.56" angle="23.56" type="car" speed="13.16" pos="43.05" lane="B1.2102_1" slope="0.00"/>
    </timestep>
    <timestep time="4.30">
        <vehicle id="vehA" x="2802.63" y="2372.78" angle="23.56" type="car" speed="13.33" pos="44.38" lane="B1.2102_1" slope="0.00"/>
    </timestep>
    <timestep time="4.40">
        <vehicle id="vehA" x="2803.17" y="2374.01" angle="23.56" type="car" speed="13.47" pos="45.73" lane="B1.2102_1" slope="0.00"/>
    </timestep>
    <timestep time="4.50">
        <vehicle id="vehA" x="2803.72" y="2375.27" angle="23.56" type="car" speed="13.72" pos="47.10" lane="B1.2102_1" slope="0.00"/>
    </timestep>
    <timestep time="4.60">
        <vehicle id="vehA" x="2804.27" y="2376.55" angle="23.56" type="car" speed="13.90" pos="48.49" lane="B1.2102_1" slope="0.00"/>
    </timestep>
    <timestep time="4.70">
        <vehicle id="vehA" x="2804.84" y="2377.84" angle="23.56" type="car" speed="14.16" pos="49.91" lane="B1.2102_1" slope="0.00"/>
    </timestep>
    <timestep time="4.80">
        <vehicle id="vehA" x="2805.41" y="2379.16" angle="23.56" type="car" speed="14.39" pos="51.34" lane="B1.2102_1" slope="0.00"/>
    </timestep>
    <timestep time="4.90">
        <vehicle id="vehA" x="2806.00" y="2380.50" angle="23.56" type="car" speed="14.57" pos="52.80" lane="B1.2102_1" slope="0.00"/>
    </timestep>
    <timestep time="5.00">
        <vehicle id="vehA" x="2806.58" y="2381.85" angle="23.56" type="car" speed="14.72" pos="54.27" lane="B1.2102_1" slope="0.00"/>
    </timestep>
    <timestep time="5.10">
        <vehicle id="vehA" x="2807.18" y="2383.22" angle="23.56" type="car" speed="14.95" pos="55.77" lane="B1.2102_1" slope="0.00"/>
    </timestep>
    <timestep time="5.20">
        <vehicle id="vehA" x="2807.79" y="2384.61" angle="23.56" type="car" speed="15.18" pos="57.29" lane="B1.2102_1" slope="0.00"/>
    </timestep>
    <timestep time="5.30">
        <vehicle id="vehA" x="2808.40" y="2386.02" angle="23.56" type="car" speed="15.34" pos="58.82" lane="B1.2102_1" slope="0.00"/>
    </timestep>
    <timestep time="5.40">
        <vehicle id="vehA" x="2809.02" y="2387.44" angle="23.56" type="car" speed="15.52" pos="60.37" lane="B1.2102_1" slope="0.00"/>
    </timestep>
    <timestep time="5.50">
        <vehicle id="vehA" x="2809.65" y="2388.88" angle="23.56" type="car" speed="15.73" pos="61.95" lane="B1.2102_1" slope="0.00"/>
    </timestep>
    <timestep time="5.60">
        <vehicle id="vehA" x="2810.29" y="2390.34" angle="23.56" type="car" speed="15.91" pos="63.54" lane="B1.2102_1" slope="0.00"/>
    </timestep>
    <timestep time="5.70">
        <vehicle id="vehA" x="2810.93" y="2391.81" angle="23.56" type="car" speed="16.09" pos="65.15" lane="B1.2102_1" slope="0.00"/>
    </timestep>
    <timestep time="5.80">
        <vehicle id="vehA" x="2811.58" y="2393.31" angle="23.56" type="car" speed="16.34" pos="66.78" lane="B1.2102_1" slope="0.00"/>
    </timestep>
    <timestep time="5.90">
        <vehicle id="vehA" x="2812.25" y="2394.83" angle="23.56" type="car" speed="16.58" pos="68.44" lane="B1.2102_1" slope="0.00"/>
    </timestep>
    <timestep time="6.00">
        <vehicle id="vehA" x="2812.92" y="2396.37" angle="23.56" type="car" speed="16.83" pos="70.12" lane="B1.2102_1" slope="0.00"/>
    </timestep>
    <timestep time="6.10">
        <vehicle id="vehA" x="2813.60" y="2397.94" angle="23.56" type="car" speed="17.07" pos="71.83" lane="B1.2102_1" slope="0.00"/>
    </timestep>
    <timestep time="6.20">
        <vehicle id="vehA" x="2814.29" y="2399.52" angle="23.56" type="car" speed="17.24" pos="73.55" lane="B1.2102_1" slope="0.00"/>
    </timestep>
    <timestep time="6.30">
        <vehicle id="vehA" x="2814.99" y="2401.12" angle="23.56" type="car" speed="17.43" pos="75.29" lane="B1.2102_1" slope="0.00"/>
    </timestep>
    <timestep time="6.40">
        <vehicle id="vehA" x="2815.69" y="2402.73" angle="23.56" type="car" speed="17.66" pos="77.06" lane="B1.2102_1" slope="0.00"/>
    </timestep>
    <timestep time="6.50">
        <vehicle id="vehA" x="2816.41" y="2404.37" angle="23.56" type="car" speed="17.84" pos="78.84" lane="B1.2102_1" slope="0.00"/>
    </timestep>
    <timestep time="6.60">
        <vehicle id="vehA" x="2817.13" y="2406.02" angle="23.56" type="car" speed="18.05" pos="80.65" lane="B1.2102_1" slope="0.00"/>
    </timestep>
    <timestep time="6.70">
        <vehicle id="vehA" x="2817.86" y="2407.69" angle="23.56" type="car" speed="18.21" pos="82.47" lane="B1.2102_1" slope="0.00"/>
    </timestep>
    <timestep time="6.80">
        <vehicle id="vehA" x="2818.59" y="2409.38" angle="23.56" type="car" speed="18.36" pos="84.31" lane="B1.2102_1" slope="0.00"/>
    </timestep>
    <timestep time="6.90">
        <vehicle id="vehA" x="2819.33" y="2411.07" angle="23.56" type="car" speed="18.50" pos="86.16" lane="B1.2102_1" slope="0.00"/>
    </timestep>
    <timestep time="7.00">
        <vehicle id="vehA" x="2820.08" y="2412.78" angle="23.56" type="car" speed="18.67" pos="88.02" lane="B1.2102_1" slope="0.00"/>
    </timestep>
    <timestep time="7.10">
        <vehicle id="vehA" x="2820.83" y="2414.51" angle="23.56" type="car" speed="18.85" pos="89.91" lane="B1.2102_1" slope="0.00"/>
    </timestep>
    <timestep time="7.20">
        <vehicle id="vehA" x="2821.59" y="2416.25" angle="23.56" type="car" speed="19.00" pos="91.81" lane="B1.2102_1" slope="0.00"/>
    </timestep>
    <timestep time="7.30">
        <vehicle id="vehA" x="2822.36" y="2418.02" angle="23.56" type="car" speed="19.22" pos="93.73" lane="B1.2102_1" slope="0.00"/>
    </timestep>
    <timestep time="7.40">
        <vehicle id="vehA" x="2823.14" y="2419.80" angle="23.56" type="car" speed="19.46" pos="95.68" lane="B1.2102_1" slope="0.00"/>
    </timestep>
    <timestep time="7.50">
        <vehicle id="vehA" x="2823.92" y="2421.61" angle="23.56" type="car" speed="19.70" pos="97.65" lane="B1.2102_1" slope="0.00"/>
    </timestep>
    <timestep time="7.60">
        <vehicle id="vehA" x="2824.72" y="2423.43" angle="23.56" type="car" speed="19.94" pos="99.64" lane="B1.2102_1" slope="0.00"/>
    </timestep>
    <timestep time="7.70">
        <vehicle id="vehA" x="2825.53" y="2425.28" angle="23.56" type="car" speed="20.15" pos="101.66" lane="B1.2102_1" slope="0.00"/>
    </timestep>
    <timestep time="7.80">
        <vehicle id="vehA" x="2826.34" y="2427.15" angle="23.56" type="car" speed="20.37" pos="103.69" lane="B1.2102_1" slope="0.00"/>
    </timestep>
    <timestep time="7.90">
        <vehicle id="vehA" x="2827.16" y="2429.03" angle="23.56" type="car" speed="20.56" pos="105.75" lane="B1.2102_1" slope="0.00"/>
    </timestep>
    <timestep time="8.00">
        <vehicle id="random_cars.0" x="2789.66" y="2335.04" angle="23.56" type="car" speed="33.33" pos="4.60" lane="B1.2102_0" slope="0.00"/>
        <vehicle id="vehA" x="2827.99" y="2430.94" angle="23.56" type="car" speed="20.77" pos="107.83" lane="B1.2102_1" slope="0.00"/>
    </timestep>
    <timestep time="8.10">
        <vehicle id="random_cars.0" x="2790.99" y="2338.08" angle="23.56" type="car" speed="33.20" pos="7.92" lane="B1.2102_0" slope="0.00"/>
        <vehicle id="vehA" x="2828.83" y="2432.86" angle="23.56" type="car" speed="20.97" pos="109.92" lane="B1.2102_1" slope="0.00"/>
    </timestep>
    <timestep time="8.20">
        <vehicle id="random_cars.0" x="2792.30" y="2341.08" angle="23.56" type="car" speed="32.75" pos="11.20" lane="B1.2102_0" slope="0.00"/>
        <vehicle id="vehA" x="2829.68" y="2434.80" angle="23.56" type="car" speed="21.20" pos="112.04" lane="B1.2102_1" slope="0.00"/>
    </timestep>
    <timestep time="8.30">
        <vehicle id="random_cars.0" x="2793.59" y="2344.05" angle="23.56" type="car" speed="32.30" pos="14.43" lane="B1.2102_0" slope="0.00"/>
        <vehicle id="vehA" x="2830.53" y="2436.76" angle="23.56" type="car" speed="21.36" pos="114.18" lane="B1.2102_1" slope="0.00"/>
    </timestep>
    <timestep time="8.40">
        <vehicle id="random_cars.0" x="2791.93" y="2348.24" angle="23.56" type="car" speed="31.85" pos="17.61" lane="B1.2102_1" slope="0.00"/>
        <vehicle id="vehA" x="2831.39" y="2438.73" angle="23.56" type="car" speed="21.54" pos="116.33" lane="B1.2102_1" slope="0.00"/>
    </timestep>
    <timestep time="8.50">
        <vehicle id="random_cars.0" x="2793.19" y="2351.14" angle="23.56" type="car" speed="31.64" pos="20.78" lane="B1.2102_1" slope="0.00"/>
        <vehicle id="vehA" x="2832.26" y="2440.73" angle="23.56" type="car" speed="21.80" pos="118.51" lane="B1.2102_1" slope="0.00"/>
    </timestep>
    <timestep time="8.60">
        <vehicle id="random_cars.0" x="2794.46" y="2354.05" angle="23.56" type="car" speed="31.71" pos="23.95" lane="B1.2102_1" slope="0.00"/>
        <vehicle id="vehA" x="2833.14" y="2442.75" angle="23.56" type="car" speed="21.98" pos="120.71" lane="B1.2102_1" slope="0.00"/>
    </timestep>
    <timestep time="8.70">
        <vehicle id="random_cars.0" x="2795.73" y="2356.96" angle="23.56" type="car" speed="31.73" pos="27.12" lane="B1.2102_1" slope="0.00"/>
        <vehicle id="vehA" x="2834.03" y="2444.78" angle="23.56" type="car" speed="22.20" pos="122.93" lane="B1.2102_1" slope="0.00"/>
    </timestep>
    <timestep time="8.80">
        <vehicle id="random_cars.0" x="2797.00" y="2359.87" angle="23.56" type="car" speed="31.71" pos="30.29" lane="B1.2102_1" slope="0.00"/>
        <vehicle id="vehA" x="2834.93" y="2446.84" angle="23.56" type="car" speed="22.43" pos="125.17" lane="B1.2102_1" slope="0.00"/>
    </timestep>
    <timestep time="8.90">
        <vehicle id="random_cars.0" x="2798.27" y="2362.77" angle="23.56" type="car" speed="31.74" pos="33.46" lane="B1.2102_1" slope="0.00"/>
        <vehicle id="vehA" x="2835.83" y="2448.91" angle="23.56" type="car" speed="22.63" pos="127.44" lane="B1.2102_1" slope="0.00"/>
    </timestep>
    <timestep time="9.00">
        <vehicle id="random_cars.0" x="2799.54" y="2365.69" angle="23.56" type="car" speed="31.82" pos="36.65" lane="B1.2102_1" slope="0.00"/>
        <vehicle id="vehA" x="2836.75" y="2451.01" angle="23.56" type="car" speed="22.84" pos="129.72" lane="B1.2102_1" slope="0.00"/>
    </timestep>
    <timestep time="9.10">
        <vehicle id="random_cars.0" x="2800.81" y="2368.60" angle="23.56" type="car" speed="31.72" pos="39.82" lane="B1.2102_1" slope="0.00"/>
        <vehicle id="vehA" x="2837.67" y="2453.12" angle="23.56" type="car" speed="23.03" pos="132.03" lane="B1.2102_1" slope="0.00"/>
    </timestep>
    <timestep time="9.20">
        <vehicle id="random_cars.0" x="2802.08" y="2371.51" angle="23.56" type="car" speed="31.80" pos="43.00" lane="B1.2102_1" slope="0.00"/>
        <vehicle id="vehA" x="2838.59" y="2455.24" angle="23.56" type="car" speed="23.17" pos="134.34" lane="B1.2102_1" slope="0.00"/>
    </timestep>
    <timestep time="9.30">
        <vehicle id="random_cars.0" x="2803.35" y="2374.43" angle="23.56" type="car" speed="31.78" pos="46.18" lane="B1.2102_1" slope="0.00"/>
        <vehicle id="vehA" x="2839.53" y="2457.38" angle="23.56" type="car" speed="23.38" pos="136.68" lane="B1.2102_1" slope="0.00"/>
    </timestep>
    <timestep time="9.40">
        <vehicle id="random_cars.0" x="2804.62" y="2377.34" angle="23.56" type="car" speed="31.76" pos="49.35" lane="B1.2102_1" slope="0.00"/>
        <vehicle id="vehA" x="2840.47" y="2459.55" angle="23.56" type="car" speed="23.61" pos="139.04" lane="B1.2102_1" slope="0.00"/>
    </timestep>
    <timestep time="9.50">
        <vehicle id="random_cars.0" x="2805.89" y="2380.26" angle="23.56" type="car" speed="31.87" pos="52.54" lane="B1.2102_1" slope="0.00"/>
        <vehicle id="vehA" x="2841.42" y="2461.73" angle="23.56" type="car" speed="23.83" pos="141.42" lane="B1.2102_1" slope="0.00"/>
    </timestep>
    <timestep time="9.60">
        <vehicle id="random_cars.0" x="2807.17" y="2383.18" angle="23.56" type="car" speed="31.85" pos="55.73" lane="B1.2102_1" slope="0.00"/>
        <vehicle id="vehA" x="2842.38" y="2463.93" angle="23.56" type="car" speed="24.03" pos="143.83" lane="B1.2102_1" slope="0.00"/>
    </timestep>
    <timestep time="9.70">
        <vehicle id="random_cars.0" x="2808.44" y="2386.10" angle="23.56" type="car" speed="31.86" pos="58.91" lane="B1.2102_1" slope="0.00"/>
        <vehicle id="vehA" x="2843.35" y="2466.15" angle="23.56" type="car" speed="24.22" pos="146.25" lane="B1.2102_1" slope="0.00"/>
    </timestep>
    <timestep time="9.80">
        <vehicle id="random_cars.0" x="2809.71" y="2389.02" angle="23.56" type="car" speed="31.92" pos="62.10" lane="B1.2102_1" slope="0.00"/>
        <vehicle id="vehA" x="2844.33" y="2468.40" angle="23.56" type="car" speed="24.44" pos="148.69" lane="B1.2102_1" slope="0.00"/>
    </timestep>
    <timestep time="9.90">
        <vehicle id="random_cars.0" x="2810.99" y="2391.96" angle="23.56" type="car" speed="32.00" pos="65.30" lane="B1.2102_1" slope="0.00"/>
        <vehicle id="vehA" x="2845.31" y="2470.66" angle="23.56" type="car" speed="24.66" pos="151.16" lane="B1.2102_1" slope="0.00"/>
    </timestep>
    <timestep time="10.00">
        <vehicle id="random_cars.0" x="2812.28" y="2394.90" angle="23.56" type="car" speed="32.12" pos="68.51" lane="B1.2102_1" slope="0.00"/>
        <vehicle id="vehA" x="2846.31" y="2472.93" angle="23.56" type="car" speed="24.82" pos="153.64" lane="B1.2102_1" slope="0.00"/>
    </timestep>
    <timestep time="10.10">
        <vehicle id="random_cars.0" x="2813.56" y="2397.84" angle="23.56" type="car" speed="32.11" pos="71.72" lane="B1.2102_1" slope="0.00"/>
        <vehicle id="vehA" x="2847.31" y="2475.22" angle="23.56" type="car" speed="25.00" pos="156.14" lane="B1.2102_1" slope="0.00"/>
    </timestep>
    <timestep time="10.20">
        <vehicle id="random_cars.0" x="2814.84" y="2400.78" angle="23.56" type="car" speed="32.08" pos="74.93" lane="B1.2102_1" slope="0.00"/>
        <vehicle id="vehA" x="2848.31" y="2477.54" angle="23.56" type="car" speed="25.25" pos="158.67" lane="B1.2102_1" slope="0.00"/>
    </timestep>
    <timestep time="10.30">
        <vehicle id="random_cars.0" x="2816.13" y="2403.74" angle="23.56" type="car" speed="32.22" pos="78.16" lane="B1.2102_1" slope="0.00"/>
        <vehicle id="vehA" x="2849.33" y="2479.87" angle="23.56" type="car" speed="25.47" pos="161.21" lane="B1.2102_1" slope="0.00"/>
    </timestep>
    <timestep time="10.40">
        <vehicle id="random_cars.0" x="2817.42" y="2406.69" angle="23.56" type="car" speed="32.24" pos="81.38" lane="B1.2102_1" slope="0.00"/>
        <vehicle id="vehA" x="2850.32" y="2482.24" angle="23.02" type="car" speed="25.70" pos="163.78" lane="B1.2102_1" slope="0.00"/>
    </timestep>
    <timestep time="10.50">
        <vehicle id="random_cars.0" x="2818.71" y="2409.66" angle="23.56" type="car" speed="32.32" pos="84.61" lane="B1.2102_1" slope="0.00"/>
        <vehicle id="vehA" x="2851.29" y="2484.65" angle="22.09" type="car" speed="25.91" pos="166.37" lane="B1.2102_1" slope="0.00"/>
    </timestep>
    <timestep time="10.60">
        <vehicle id="random_cars.0" x="2820.01" y="2412.63" angle="23.56" type="car" speed="32.44" pos="87.86" lane="B1.2102_1" slope="0.00"/>
        <vehicle id="vehA" x="2852.26" y="2487.06" angle="21.94" type="car" speed="26.06" pos="168.98" lane="B1.2102_1" slope="0.00"/>
    </timestep>
    <timestep time="10.70">
        <vehicle id="random_cars.0" x="2821.30" y="2415.60" angle="23.56" type="car" speed="32.38" pos="91.09" lane="B1.2102_1" slope="0.00"/>
        <vehicle id="vehA" x="2853.24" y="2489.50" angle="21.94" type="car" speed="26.24" pos="171.60" lane="B1.2102_1" slope="0.00"/>
    </timestep>
    <timestep time="10.80">
        <vehicle id="random_cars.0" x="2822.60" y="2418.58" angle="23.56" type="car" speed="32.50" pos="94.34" lane="B1.2102_1" slope="0.00"/>
        <vehicle id="vehA" x="2854.23" y="2491.96" angle="21.94" type="car" speed="26.50" pos="174.25" lane="B1.2102_1" slope="0.00"/>
    </timestep>
    <timestep time="10.90">
        <vehicle id="random_cars.0" x="2823.91" y="2421.57" angle="23.56" type="car" speed="32.62" pos="97.61" lane="B1.2102_1" slope="0.00"/>
        <vehicle id="vehA" x="2855.23" y="2494.43" angle="21.94" type="car" speed="26.67" pos="176.92" lane="B1.2102_1" slope="0.00"/>
    </timestep>
    <timestep time="11.00">
        <vehicle id="random_cars.0" x="2825.21" y="2424.56" angle="23.56" type="car" speed="32.59" pos="100.87" lane="B1.2102_1" slope="0.00"/>
        <vehicle id="vehA" x="2856.24" y="2496.93" angle="21.94" type="car" speed="26.90" pos="179.61" lane="B1.2102_1" slope="0.00"/>
    </timestep>
    <timestep time="11.10">
        <vehicle id="random_cars.0" x="2826.52" y="2427.56" angle="23.56" type="car" speed="32.79" pos="104.14" lane="B1.2102_1" slope="0.00"/>
        <vehicle id="vehA" x="2857.25" y="2499.44" angle="21.94" type="car" speed="27.15" pos="182.33" lane="B1.2102_1" slope="0.00"/>
    </timestep>
    <timestep time="11.20">
        <vehicle id="random_cars.0" x="2827.83" y="2430.57" angle="23.56" type="car" speed="32.80" pos="107.42" lane="B1.2102_1" slope="0.00"/>
        <vehicle id="vehA" x="2858.27" y="2501.98" angle="21.94" type="car" speed="27.37" pos="185.06" lane="B1.2102_1" slope="0.00"/>
    </timestep>
    <timestep time="11.30">
        <vehicle id="random_cars.0" x="2829.15" y="2433.59" angle="23.56" type="car" speed="32.97" pos="110.72" lane="B1.2102_1" slope="0.00"/>
        <vehicle id="vehA" x="2859.30" y="2504.54" angle="21.94" type="car" speed="27.58" pos="187.82" lane="B1.2102_1" slope="0.00"/>
    </timestep>
    <timestep time="11.40">
        <vehicle id="random_cars.0" x="2830.47" y="2436.62" angle="23.56" type="car" speed="33.05" pos="114.03" lane="B1.2102_1" slope="0.00"/>
        <vehicle id="vehA" x="2860.34" y="2507.11" angle="21.94" type="car" speed="27.72" pos="190.59" lane="B1.2102_1" slope="0.00"/>
    </timestep>
    <timestep time="11.50">
        <vehicle id="random_cars.0" x="2831.79" y="2439.65" angle="23.56" type="car" speed="33.08" pos="117.33" lane="B1.2102_1" slope="0.00"/>
        <vehicle id="vehA" x="2861.38" y="2509.71" angle="21.94" type="car" speed="27.97" pos="193.39" lane="B1.2102_1" slope="0.00"/>
    </timestep>
    <timestep time="11.60">
        <vehicle id="random_cars.0" x="2833.12" y="2442.70" angle="23.56" type="car" speed="33.25" pos="120.66" lane="B1.2102_1" slope="0.00"/>
        <vehicle id="vehA" x="2862.43" y="2512.32" angle="21.94" type="car" speed="28.14" pos="196.21" lane="B1.2102_1" slope="0.00"/>
    </timestep>
    <timestep time="11.70">
        <vehicle id="random_cars.0" x="2834.45" y="2445.75" angle="23.56" type="car" speed="33.25" pos="123.98" lane="B1.2102_1" slope="0.00"/>
        <vehicle id="vehA" x="2863.49" y="2514.95" angle="21.94" type="car" speed="28.36" pos="199.04" lane="B1.2102_1" slope="0.00"/>
    </timestep>
    <timestep time="11.80">
        <vehicle id="random_cars.0" x="2835.78" y="2448.79" angle="23.56" type="car" speed="33.26" pos="127.31" lane="B1.2102_1" slope="0.00"/>
        <vehicle id="vehA" x="2864.56" y="2517.60" angle="21.94" type="car" speed="28.60" pos="201.90" lane="B1.2102_1" slope="0.00"/>
    </timestep>
    <timestep time="11.90">
        <vehicle id="random_cars.0" x="2837.11" y="2451.85" angle="23.56" type="car" speed="33.28" pos="130.64" lane="B1.2102_1" slope="0.00"/>
        <vehicle id="vehA" x="2865.64" y="2520.27" angle="21.94" type="car" speed="28.78" pos="204.78" lane="B1.2102_1" slope="0.00"/>
    </timestep>
    <timestep time="12.00">
        <vehicle id="random_cars.0" x="2838.44" y="2454.89" angle="23.56" type="car" speed="33.24" pos="133.96" lane="B1.2102_1" slope="0.00"/>
        <vehicle id="vehA" x="2866.72" y="2522.96" angle="21.94" type="car" speed="29.01" pos="207.68" lane="B1.2102_1" slope="0.00"/>
    </timestep>
    <timestep time="12.10">
        <vehicle id="random_cars.0" x="2839.75" y="2457.90" angle="23.56" type="car" speed="32.79" pos="137.24" lane="B1.2102_1" slope="0.00"/>
        <vehicle id="vehA" x="2867.81" y="2525.67" angle="21.94" type="car" speed="29.15" pos="210.60" lane="B1.2102_1" slope="0.00"/>
    </timestep>
    <timestep time="12.20">
        <vehicle id="random_cars.0" x="2841.04" y="2460.86" angle="23.56" type="car" speed="32.34" pos="140.48" lane="B1.2102_1" slope="0.00"/>
        <vehicle id="vehA" x="2868.91" y="2528.39" angle="21.94" type="car" speed="29.33" pos="213.53" lane="B1.2102_1" slope="0.00"/>
    </timestep>
    <timestep time="12.30">
        <vehicle id="random_cars.0" x="2842.32" y="2463.79" angle="23.56" type="car" speed="31.89" pos="143.66" lane="B1.2102_1" slope="0.00"/>
        <vehicle id="vehA" x="2870.01" y="2531.13" angle="21.94" type="car" speed="29.57" pos="216.49" lane="B1.2102_1" slope="0.00"/>
    </timestep>
    <timestep time="12.40">
        <vehicle id="random_cars.0" x="2843.58" y="2466.67" angle="23.56" type="car" speed="31.44" pos="146.81" lane="B1.2102_1" slope="0.00"/>
        <vehicle id="vehA" x="2871.12" y="2533.88" angle="21.94" type="car" speed="29.71" pos="219.46" lane="B1.2102_1" slope="0.00"/>
    </timestep>
    <timestep time="12.50">
        <vehicle id="random_cars.0" x="2844.81" y="2469.51" angle="23.56" type="car" speed="30.99" pos="149.91" lane="B1.2102_1" slope="0.00"/>